ITEM: TIMESTEP
0
ITEM: NUMBER OF ATOMS
2304
ITEM: BOX BOUNDS pp pp pp
-6.71875 6.71875
-6.71875 6.71875
-6.476 6.476
ITEM: ATOMS x y z type
-6.71875 -6.71875 -4.857 1
-6.1588537187 -6.1588537187 -6.476 1
-6.71875 -6.1588537187 -4.0475 1
-6.1588537187 -6.71875 -5.6665 1
-5.5989587812 -6.71875 -4.857 1
-5.0390625 -6.1588537187 -6.476 1
-5.5989587812 -6.1588537187 -4.0475 1
-5.0390625 -6.71875 -5.6665 1
-4.4791621875 -6.71875 -4.857 1
-3.9192753125 -6.1588537187 -6.476 1
-4.4791621875 -6.1588537187 -4.0475 1
-3.9192753125 -6.71875 -5.6665 1
-3.359375 -6.71875 -4.857 1
-2.7994746875 -6.1588537187 -6.476 1
-3.359375 -6.1588537187 -4.0475 1
-2.7994746875 -6.71875 -5.6665 1
-6.71875 -5.5989587812 -4.857 1
-6.1588537187 -5.0390625 -6.476 1
-6.71875 -5.0390625 -4.0475 1
-6.1588537187 -5.5989587812 -5.6665 1
-5.5989587812 -5.5989587812 -4.857 1
-5.0390625 -5.0390625 -6.476 1
-5.5989587812 -5.0390625 -4.0475 1
-5.0390625 -5.5989587812 -5.6665 1
-4.4791621875 -5.5989587812 -4.857 1
-3.9192753125 -5.0390625 -6.476 1
-4.4791621875 -5.0390625 -4.0475 1
-3.9192753125 -5.5989587812 -5.6665 1
-3.359375 -5.5989587812 -4.857 1
-2.7994746875 -5.0390625 -6.476 1
-3.359375 -5.0390625 -4.0475 1
-2.7994746875 -5.5989587812 -5.6665 1
-6.71875 -4.4791621875 -4.857 1
-6.1588537187 -3.9192753125 -6.476 1
-6.71875 -3.9192753125 -4.0475 1
-6.1588537187 -4.4791621875 -5.6665 1
-5.5989587812 -4.4791621875 -4.857 1
-5.0390625 -3.9192753125 -6.476 1
-5.5989587812 -3.9192753125 -4.0475 1
-5.0390625 -4.4791621875 -5.6665 1
-4.4791621875 -4.4791621875 -4.857 1
-3.9192753125 -3.9192753125 -6.476 1
-4.4791621875 -3.9192753125 -4.0475 1
-3.9192753125 -4.4791621875 -5.6665 1
-3.359375 -4.4791621875 -4.857 1
-2.7994746875 -3.9192753125 -6.476 1
-3.359375 -3.9192753125 -4.0475 1
-2.7994746875 -4.4791621875 -5.6665 1
-6.71875 -3.359375 -4.857 1
-6.1588537187 -2.7994746875 -6.476 1
-6.71875 -2.7994746875 -4.0475 1
-6.1588537187 -3.359375 -5.6665 1
-5.5989587812 -3.359375 -4.857 1
-5.0390625 -2.7994746875 -6.476 1
-5.5989587812 -2.7994746875 -4.0475 1
-5.0390625 -3.359375 -5.6665 1
-4.4791621875 -3.359375 -4.857 1
-3.9192753125 -2.7994746875 -6.476 1
-4.4791621875 -2.7994746875 -4.0475 1
-3.9192753125 -3.359375 -5.6665 1
-3.359375 -3.359375 -4.857 1
-2.7994746875 -2.7994746875 -6.476 1
-3.359375 -2.7994746875 -4.0475 1
-2.7994746875 -3.359375 -5.6665 1
-6.1588537187 -6.1588537187 -3.238 1
-6.1588537187 -6.71875 -2.4285 1
-5.0390625 -6.1588537187 -3.238 1
-5.0390625 -6.71875 -2.4285 1
-3.9192753125 -6.1588537187 -3.238 1
-3.9192753125 -6.71875 -2.4285 1
-2.7994746875 -6.1588537187 -3.238 1
-2.7994746875 -6.71875 -2.4285 1
-6.1588537187 -5.0390625 -3.238 1
-6.1588537187 -5.5989587812 -2.4285 1
-5.0390625 -5.0390625 -3.238 1
-5.0390625 -5.5989587812 -2.4285 1
-3.9192753125 -5.0390625 -3.238 1
-3.9192753125 -5.5989587812 -2.4285 1
-2.7994746875 -5.0390625 -3.238 1
-2.7994746875 -5.5989587812 -2.4285 1
-6.1588537187 -3.9192753125 -3.238 1
-6.1588537187 -4.4791621875 -2.4285 1
-5.0390625 -3.9192753125 -3.238 1
-5.0390625 -4.4791621875 -2.4285 1
-3.9192753125 -3.9192753125 -3.238 1
-3.9192753125 -4.4791621875 -2.4285 1
-2.7994746875 -3.9192753125 -3.238 1
-2.7994746875 -4.4791621875 -2.4285 1
-6.1588537187 -2.7994746875 -3.238 1
-6.1588537187 -3.359375 -2.4285 1
-5.0390625 -2.7994746875 -3.238 1
-5.0390625 -3.359375 -2.4285 1
-3.9192753125 -2.7994746875 -3.238 1
-3.9192753125 -3.359375 -2.4285 1
-2.7994746875 -2.7994746875 -3.238 1
-2.7994746875 -3.359375 -2.4285 1
-2.2395878125 -6.71875 -4.857 1
-1.6796875 -6.1588537187 -6.476 1
-2.2395878125 -6.1588537187 -4.0475 1
-1.6796875 -6.71875 -5.6665 1
-1.1197871875 -6.71875 -4.857 1
-0.5599003125 -6.1588537187 -6.476 1
-1.1197871875 -6.1588537187 -4.0475 1
-0.5599003125 -6.71875 -5.6665 1
0.0 -6.71875 -4.857 1
0.5599003125 -6.1588537187 -6.476 1
0.0 -6.1588537187 -4.0475 1
0.5599003125 -6.71875 -5.6665 1
1.1197871875 -6.71875 -4.857 1
1.6796875 -6.1588537187 -6.476 1
1.1197871875 -6.1588537187 -4.0475 1
1.6796875 -6.71875 -5.6665 1
-2.2395878125 -5.5989587812 -4.857 1
-1.6796875 -5.0390625 -6.476 1
-2.2395878125 -5.0390625 -4.0475 1
-1.6796875 -5.5989587812 -5.6665 1
-1.1197871875 -5.5989587812 -4.857 1
-0.5599003125 -5.0390625 -6.476 1
-1.1197871875 -5.0390625 -4.0475 1
-0.5599003125 -5.5989587812 -5.6665 1
0.0 -5.5989587812 -4.857 1
0.5599003125 -5.0390625 -6.476 1
0.0 -5.0390625 -4.0475 1
0.5599003125 -5.5989587812 -5.6665 1
1.1197871875 -5.5989587812 -4.857 1
1.6796875 -5.0390625 -6.476 1
1.1197871875 -5.0390625 -4.0475 1
1.6796875 -5.5989587812 -5.6665 1
-2.2395878125 -4.4791621875 -4.857 1
-1.6796875 -3.9192753125 -6.476 1
-2.2395878125 -3.9192753125 -4.0475 1
-1.6796875 -4.4791621875 -5.6665 1
-1.1197871875 -4.4791621875 -4.857 1
-0.5599003125 -3.9192753125 -6.476 1
-1.1197871875 -3.9192753125 -4.0475 1
-0.5599003125 -4.4791621875 -5.6665 1
0.0 -4.4791621875 -4.857 1
0.5599003125 -3.9192753125 -6.476 1
0.0 -3.9192753125 -4.0475 1
0.5599003125 -4.4791621875 -5.6665 1
1.1197871875 -4.4791621875 -4.857 1
1.6796875 -3.9192753125 -6.476 1
1.1197871875 -3.9192753125 -4.0475 1
1.6796875 -4.4791621875 -5.6665 1
-2.2395878125 -3.359375 -4.857 1
-1.6796875 -2.7994746875 -6.476 1
-2.2395878125 -2.7994746875 -4.0475 1
-1.6796875 -3.359375 -5.6665 1
-1.1197871875 -3.359375 -4.857 1
-0.5599003125 -2.7994746875 -6.476 1
-1.1197871875 -2.7994746875 -4.0475 1
-0.5599003125 -3.359375 -5.6665 1
0.0 -3.359375 -4.857 1
0.5599003125 -2.7994746875 -6.476 1
0.0 -2.7994746875 -4.0475 1
0.5599003125 -3.359375 -5.6665 1
1.1197871875 -3.359375 -4.857 1
1.6796875 -2.7994746875 -6.476 1
1.1197871875 -2.7994746875 -4.0475 1
1.6796875 -3.359375 -5.6665 1
-1.6796875 -6.1588537187 -3.238 1
-1.6796875 -6.71875 -2.4285 1
-0.5599003125 -6.1588537187 -3.238 1
-0.5599003125 -6.71875 -2.4285 1
0.5599003125 -6.1588537187 -3.238 1
0.5599003125 -6.71875 -2.4285 1
1.6796875 -6.1588537187 -3.238 1
1.6796875 -6.71875 -2.4285 1
-1.6796875 -5.0390625 -3.238 1
-1.6796875 -5.5989587812 -2.4285 1
-0.5599003125 -5.0390625 -3.238 1
-0.5599003125 -5.5989587812 -2.4285 1
0.5599003125 -5.0390625 -3.238 1
0.5599003125 -5.5989587812 -2.4285 1
1.6796875 -5.0390625 -3.238 1
1.6796875 -5.5989587812 -2.4285 1
-1.6796875 -3.9192753125 -3.238 1
-1.6796875 -4.4791621875 -2.4285 1
-0.5599003125 -3.9192753125 -3.238 1
-0.5599003125 -4.4791621875 -2.4285 1
0.5599003125 -3.9192753125 -3.238 1
0.5599003125 -4.4791621875 -2.4285 1
1.6796875 -3.9192753125 -3.238 1
1.6796875 -4.4791621875 -2.4285 1
-1.6796875 -2.7994746875 -3.238 1
-1.6796875 -3.359375 -2.4285 1
-0.5599003125 -2.7994746875 -3.238 1
-0.5599003125 -3.359375 -2.4285 1
0.5599003125 -2.7994746875 -3.238 1
0.5599003125 -3.359375 -2.4285 1
1.6796875 -2.7994746875 -3.238 1
1.6796875 -3.359375 -2.4285 1
2.2395878125 -6.71875 -4.857 1
2.7994746875 -6.1588537187 -6.476 1
2.2395878125 -6.1588537187 -4.0475 1
2.7994746875 -6.71875 -5.6665 1
3.359375 -6.71875 -4.857 1
3.9192753125 -6.1588537187 -6.476 1
3.359375 -6.1588537187 -4.0475 1
3.9192753125 -6.71875 -5.6665 1
4.4791621875 -6.71875 -4.857 1
5.0390625 -6.1588537187 -6.476 1
4.4791621875 -6.1588537187 -4.0475 1
5.0390625 -6.71875 -5.6665 1
5.5989628125 -6.71875 -4.857 1
6.1588496875 -6.1588537187 -6.476 1
5.5989628125 -6.1588537187 -4.0475 1
6.1588496875 -6.71875 -5.6665 1
2.2395878125 -5.5989587812 -4.857 1
2.7994746875 -5.0390625 -6.476 1
2.2395878125 -5.0390625 -4.0475 1
2.7994746875 -5.5989587812 -5.6665 1
3.359375 -5.5989587812 -4.857 1
3.9192753125 -5.0390625 -6.476 1
3.359375 -5.0390625 -4.0475 1
3.9192753125 -5.5989587812 -5.6665 1
4.4791621875 -5.5989587812 -4.857 1
5.0390625 -5.0390625 -6.476 1
4.4791621875 -5.0390625 -4.0475 1
5.0390625 -5.5989587812 -5.6665 1
5.5989628125 -5.5989587812 -4.857 1
6.1588496875 -5.0390625 -6.476 1
5.5989628125 -5.0390625 -4.0475 1
6.1588496875 -5.5989587812 -5.6665 1
2.2395878125 -4.4791621875 -4.857 1
2.7994746875 -3.9192753125 -6.476 1
2.2395878125 -3.9192753125 -4.0475 1
2.7994746875 -4.4791621875 -5.6665 1
3.359375 -4.4791621875 -4.857 1
3.9192753125 -3.9192753125 -6.476 1
3.359375 -3.9192753125 -4.0475 1
3.9192753125 -4.4791621875 -5.6665 1
4.4791621875 -4.4791621875 -4.857 1
5.0390625 -3.9192753125 -6.476 1
4.4791621875 -3.9192753125 -4.0475 1
5.0390625 -4.4791621875 -5.6665 1
5.5989628125 -4.4791621875 -4.857 1
6.1588496875 -3.9192753125 -6.476 1
5.5989628125 -3.9192753125 -4.0475 1
6.1588496875 -4.4791621875 -5.6665 1
2.2395878125 -3.359375 -4.857 1
2.7994746875 -2.7994746875 -6.476 1
2.2395878125 -2.7994746875 -4.0475 1
2.7994746875 -3.359375 -5.6665 1
3.359375 -3.359375 -4.857 1
3.9192753125 -2.7994746875 -6.476 1
3.359375 -2.7994746875 -4.0475 1
3.9192753125 -3.359375 -5.6665 1
4.4791621875 -3.359375 -4.857 1
5.0390625 -2.7994746875 -6.476 1
4.4791621875 -2.7994746875 -4.0475 1
5.0390625 -3.359375 -5.6665 1
5.5989628125 -3.359375 -4.857 1
6.1588496875 -2.7994746875 -6.476 1
5.5989628125 -2.7994746875 -4.0475 1
6.1588496875 -3.359375 -5.6665 1
2.7994746875 -6.1588537187 -3.238 1
2.7994746875 -6.71875 -2.4285 1
3.9192753125 -6.1588537187 -3.238 1
3.9192753125 -6.71875 -2.4285 1
5.0390625 -6.1588537187 -3.238 1
5.0390625 -6.71875 -2.4285 1
6.1588496875 -6.1588537187 -3.238 1
6.1588496875 -6.71875 -2.4285 1
2.7994746875 -5.0390625 -3.238 1
2.7994746875 -5.5989587812 -2.4285 1
3.9192753125 -5.0390625 -3.238 1
3.9192753125 -5.5989587812 -2.4285 1
5.0390625 -5.0390625 -3.238 1
5.0390625 -5.5989587812 -2.4285 1
6.1588496875 -5.0390625 -3.238 1
6.1588496875 -5.5989587812 -2.4285 1
2.7994746875 -3.9192753125 -3.238 1
2.7994746875 -4.4791621875 -2.4285 1
3.9192753125 -3.9192753125 -3.238 1
3.9192753125 -4.4791621875 -2.4285 1
5.0390625 -3.9192753125 -3.238 1
5.0390625 -4.4791621875 -2.4285 1
6.1588496875 -3.9192753125 -3.238 1
6.1588496875 -4.4791621875 -2.4285 1
2.7994746875 -2.7994746875 -3.238 1
2.7994746875 -3.359375 -2.4285 1
3.9192753125 -2.7994746875 -3.238 1
3.9192753125 -3.359375 -2.4285 1
5.0390625 -2.7994746875 -3.238 1
5.0390625 -3.359375 -2.4285 1
6.1588496875 -2.7994746875 -3.238 1
6.1588496875 -3.359375 -2.4285 1
-6.71875 -2.2395878125 -4.857 1
-6.1588537187 -1.6796875 -6.476 1
-6.71875 -1.6796875 -4.0475 1
-6.1588537187 -2.2395878125 -5.6665 1
-5.5989587812 -2.2395878125 -4.857 1
-5.0390625 -1.6796875 -6.476 1
-5.5989587812 -1.6796875 -4.0475 1
-5.0390625 -2.2395878125 -5.6665 1
-4.4791621875 -2.2395878125 -4.857 1
-3.9192753125 -1.6796875 -6.476 1
-4.4791621875 -1.6796875 -4.0475 1
-3.9192753125 -2.2395878125 -5.6665 1
-3.359375 -2.2395878125 -4.857 1
-2.7994746875 -1.6796875 -6.476 1
-3.359375 -1.6796875 -4.0475 1
-2.7994746875 -2.2395878125 -5.6665 1
-6.71875 -1.1197871875 -4.857 1
-6.1588537187 -0.5599003125 -6.476 1
-6.71875 -0.5599003125 -4.0475 1
-6.1588537187 -1.1197871875 -5.6665 1
-5.5989587812 -1.1197871875 -4.857 1
-5.0390625 -0.5599003125 -6.476 1
-5.5989587812 -0.5599003125 -4.0475 1
-5.0390625 -1.1197871875 -5.6665 1
-4.4791621875 -1.1197871875 -4.857 1
-3.9192753125 -0.5599003125 -6.476 1
-4.4791621875 -0.5599003125 -4.0475 1
-3.9192753125 -1.1197871875 -5.6665 1
-3.359375 -1.1197871875 -4.857 1
-2.7994746875 -0.5599003125 -6.476 1
-3.359375 -0.5599003125 -4.0475 1
-2.7994746875 -1.1197871875 -5.6665 1
-6.71875 0.0 -4.857 1
-6.1588537187 0.5599003125 -6.476 1
-6.71875 0.5599003125 -4.0475 1
-6.1588537187 0.0 -5.6665 1
-5.5989587812 0.0 -4.857 1
-5.0390625 0.5599003125 -6.476 1
-5.5989587812 0.5599003125 -4.0475 1
-5.0390625 0.0 -5.6665 1
-4.4791621875 0.0 -4.857 1
-3.9192753125 0.5599003125 -6.476 1
-4.4791621875 0.5599003125 -4.0475 1
-3.9192753125 0.0 -5.6665 1
-3.359375 0.0 -4.857 1
-2.7994746875 0.5599003125 -6.476 1
-3.359375 0.5599003125 -4.0475 1
-2.7994746875 0.0 -5.6665 1
-6.71875 1.1197871875 -4.857 1
-6.1588537187 1.6796875 -6.476 1
-6.71875 1.6796875 -4.0475 1
-6.1588537187 1.1197871875 -5.6665 1
-5.5989587812 1.1197871875 -4.857 1
-5.0390625 1.6796875 -6.476 1
-5.5989587812 1.6796875 -4.0475 1
-5.0390625 1.1197871875 -5.6665 1
-4.4791621875 1.1197871875 -4.857 1
-3.9192753125 1.6796875 -6.476 1
-4.4791621875 1.6796875 -4.0475 1
-3.9192753125 1.1197871875 -5.6665 1
-3.359375 1.1197871875 -4.857 1
-2.7994746875 1.6796875 -6.476 1
-3.359375 1.6796875 -4.0475 1
-2.7994746875 1.1197871875 -5.6665 1
-6.1588537187 -1.6796875 -3.238 1
-6.1588537187 -2.2395878125 -2.4285 1
-5.0390625 -1.6796875 -3.238 1
-5.0390625 -2.2395878125 -2.4285 1
-3.9192753125 -1.6796875 -3.238 1
-3.9192753125 -2.2395878125 -2.4285 1
-2.7994746875 -1.6796875 -3.238 1
-2.7994746875 -2.2395878125 -2.4285 1
-6.1588537187 -0.5599003125 -3.238 1
-6.1588537187 -1.1197871875 -2.4285 1
-5.0390625 -0.5599003125 -3.238 1
-5.0390625 -1.1197871875 -2.4285 1
-3.9192753125 -0.5599003125 -3.238 1
-3.9192753125 -1.1197871875 -2.4285 1
-2.7994746875 -0.5599003125 -3.238 1
-2.7994746875 -1.1197871875 -2.4285 1
-6.1588537187 0.5599003125 -3.238 1
-6.1588537187 0.0 -2.4285 1
-5.0390625 0.5599003125 -3.238 1
-5.0390625 0.0 -2.4285 1
-3.9192753125 0.5599003125 -3.238 1
-3.9192753125 0.0 -2.4285 1
-2.7994746875 0.5599003125 -3.238 1
-2.7994746875 0.0 -2.4285 1
-6.1588537187 1.6796875 -3.238 1
-6.1588537187 1.1197871875 -2.4285 1
-5.0390625 1.6796875 -3.238 1
-5.0390625 1.1197871875 -2.4285 1
-3.9192753125 1.6796875 -3.238 1
-3.9192753125 1.1197871875 -2.4285 1
-2.7994746875 1.6796875 -3.238 1
-2.7994746875 1.1197871875 -2.4285 1
-2.2395878125 -2.2395878125 -4.857 1
-1.6796875 -1.6796875 -6.476 1
-2.2395878125 -1.6796875 -4.0475 1
-1.6796875 -2.2395878125 -5.6665 1
-1.1197871875 -2.2395878125 -4.857 1
-0.5599003125 -1.6796875 -6.476 1
-1.1197871875 -1.6796875 -4.0475 1
-0.5599003125 -2.2395878125 -5.6665 1
0.0 -2.2395878125 -4.857 1
0.5599003125 -1.6796875 -6.476 1
0.0 -1.6796875 -4.0475 1
0.5599003125 -2.2395878125 -5.6665 1
1.1197871875 -2.2395878125 -4.857 1
1.6796875 -1.6796875 -6.476 1
1.1197871875 -1.6796875 -4.0475 1
1.6796875 -2.2395878125 -5.6665 1
-2.2395878125 -1.1197871875 -4.857 1
-1.6796875 -0.5599003125 -6.476 1
-2.2395878125 -0.5599003125 -4.0475 1
-1.6796875 -1.1197871875 -5.6665 1
-1.1197871875 -1.1197871875 -4.857 1
-0.5599003125 -0.5599003125 -6.476 1
-1.1197871875 -0.5599003125 -4.0475 1
-0.5599003125 -1.1197871875 -5.6665 1
0.0 -1.1197871875 -4.857 1
0.5599003125 -0.5599003125 -6.476 1
0.0 -0.5599003125 -4.0475 1
0.5599003125 -1.1197871875 -5.6665 1
1.1197871875 -1.1197871875 -4.857 1
1.6796875 -0.5599003125 -6.476 1
1.1197871875 -0.5599003125 -4.0475 1
1.6796875 -1.1197871875 -5.6665 1
-2.2395878125 0.0 -4.857 1
-1.6796875 0.5599003125 -6.476 1
-2.2395878125 0.5599003125 -4.0475 1
-1.6796875 0.0 -5.6665 1
-1.1197871875 0.0 -4.857 1
-0.5599003125 0.5599003125 -6.476 1
-1.1197871875 0.5599003125 -4.0475 1
-0.5599003125 0.0 -5.6665 1
0.0 0.0 -4.857 1
0.5599003125 0.5599003125 -6.476 1
0.0 0.5599003125 -4.0475 1
0.5599003125 0.0 -5.6665 1
1.1197871875 0.0 -4.857 1
1.6796875 0.5599003125 -6.476 1
1.1197871875 0.5599003125 -4.0475 1
1.6796875 0.0 -5.6665 1
-2.2395878125 1.1197871875 -4.857 1
-1.6796875 1.6796875 -6.476 1
-2.2395878125 1.6796875 -4.0475 1
-1.6796875 1.1197871875 -5.6665 1
-1.1197871875 1.1197871875 -4.857 1
-0.5599003125 1.6796875 -6.476 1
-1.1197871875 1.6796875 -4.0475 1
-0.5599003125 1.1197871875 -5.6665 1
0.0 1.1197871875 -4.857 1
0.5599003125 1.6796875 -6.476 1
0.0 1.6796875 -4.0475 1
0.5599003125 1.1197871875 -5.6665 1
1.1197871875 1.1197871875 -4.857 1
1.6796875 1.6796875 -6.476 1
1.1197871875 1.6796875 -4.0475 1
1.6796875 1.1197871875 -5.6665 1
-1.6796875 -1.6796875 -3.238 1
-1.6796875 -2.2395878125 -2.4285 1
-0.5599003125 -1.6796875 -3.238 1
-0.5599003125 -2.2395878125 -2.4285 1
0.5599003125 -1.6796875 -3.238 1
0.5599003125 -2.2395878125 -2.4285 1
1.6796875 -1.6796875 -3.238 1
1.6796875 -2.2395878125 -2.4285 1
-1.6796875 -0.5599003125 -3.238 1
-1.6796875 -1.1197871875 -2.4285 1
-0.5599003125 -0.5599003125 -3.238 1
-0.5599003125 -1.1197871875 -2.4285 1
0.5599003125 -0.5599003125 -3.238 1
0.5599003125 -1.1197871875 -2.4285 1
1.6796875 -0.5599003125 -3.238 1
1.6796875 -1.1197871875 -2.4285 1
-1.6796875 0.5599003125 -3.238 1
-1.6796875 0.0 -2.4285 1
-0.5599003125 0.5599003125 -3.238 1
-0.5599003125 0.0 -2.4285 1
0.5599003125 0.5599003125 -3.238 1
0.5599003125 0.0 -2.4285 1
1.6796875 0.5599003125 -3.238 1
1.6796875 0.0 -2.4285 1
-1.6796875 1.6796875 -3.238 1
-1.6796875 1.1197871875 -2.4285 1
-0.5599003125 1.6796875 -3.238 1
-0.5599003125 1.1197871875 -2.4285 1
0.5599003125 1.6796875 -3.238 1
0.5599003125 1.1197871875 -2.4285 1
1.6796875 1.6796875 -3.238 1
1.6796875 1.1197871875 -2.4285 1
2.2395878125 -2.2395878125 -4.857 1
2.7994746875 -1.6796875 -6.476 1
2.2395878125 -1.6796875 -4.0475 1
2.7994746875 -2.2395878125 -5.6665 1
3.359375 -2.2395878125 -4.857 1
3.9192753125 -1.6796875 -6.476 1
3.359375 -1.6796875 -4.0475 1
3.9192753125 -2.2395878125 -5.6665 1
4.4791621875 -2.2395878125 -4.857 1
5.0390625 -1.6796875 -6.476 1
4.4791621875 -1.6796875 -4.0475 1
5.0390625 -2.2395878125 -5.6665 1
5.5989628125 -2.2395878125 -4.857 1
6.1588496875 -1.6796875 -6.476 1
5.5989628125 -1.6796875 -4.0475 1
6.1588496875 -2.2395878125 -5.6665 1
2.2395878125 -1.1197871875 -4.857 1
2.7994746875 -0.5599003125 -6.476 1
2.2395878125 -0.5599003125 -4.0475 1
2.7994746875 -1.1197871875 -5.6665 1
3.359375 -1.1197871875 -4.857 1
3.9192753125 -0.5599003125 -6.476 1
3.359375 -0.5599003125 -4.0475 1
3.9192753125 -1.1197871875 -5.6665 1
4.4791621875 -1.1197871875 -4.857 1
5.0390625 -0.5599003125 -6.476 1
4.4791621875 -0.5599003125 -4.0475 1
5.0390625 -1.1197871875 -5.6665 1
5.5989628125 -1.1197871875 -4.857 1
6.1588496875 -0.5599003125 -6.476 1
5.5989628125 -0.5599003125 -4.0475 1
6.1588496875 -1.1197871875 -5.6665 1
2.2395878125 0.0 -4.857 1
2.7994746875 0.5599003125 -6.476 1
2.2395878125 0.5599003125 -4.0475 1
2.7994746875 0.0 -5.6665 1
3.359375 0.0 -4.857 1
3.9192753125 0.5599003125 -6.476 1
3.359375 0.5599003125 -4.0475 1
3.9192753125 0.0 -5.6665 1
4.4791621875 0.0 -4.857 1
5.0390625 0.5599003125 -6.476 1
4.4791621875 0.5599003125 -4.0475 1
5.0390625 0.0 -5.6665 1
5.5989628125 0.0 -4.857 1
6.1588496875 0.5599003125 -6.476 1
5.5989628125 0.5599003125 -4.0475 1
6.1588496875 0.0 -5.6665 1
2.2395878125 1.1197871875 -4.857 1
2.7994746875 1.6796875 -6.476 1
2.2395878125 1.6796875 -4.0475 1
2.7994746875 1.1197871875 -5.6665 1
3.359375 1.1197871875 -4.857 1
3.9192753125 1.6796875 -6.476 1
3.359375 1.6796875 -4.0475 1
3.9192753125 1.1197871875 -5.6665 1
4.4791621875 1.1197871875 -4.857 1
5.0390625 1.6796875 -6.476 1
4.4791621875 1.6796875 -4.0475 1
5.0390625 1.1197871875 -5.6665 1
5.5989628125 1.1197871875 -4.857 1
6.1588496875 1.6796875 -6.476 1
5.5989628125 1.6796875 -4.0475 1
6.1588496875 1.1197871875 -5.6665 1
2.7994746875 -1.6796875 -3.238 1
2.7994746875 -2.2395878125 -2.4285 1
3.9192753125 -1.6796875 -3.238 1
3.9192753125 -2.2395878125 -2.4285 1
5.0390625 -1.6796875 -3.238 1
5.0390625 -2.2395878125 -2.4285 1
6.1588496875 -1.6796875 -3.238 1
6.1588496875 -2.2395878125 -2.4285 1
2.7994746875 -0.5599003125 -3.238 1
2.7994746875 -1.1197871875 -2.4285 1
3.9192753125 -0.5599003125 -3.238 1
3.9192753125 -1.1197871875 -2.4285 1
5.0390625 -0.5599003125 -3.238 1
5.0390625 -1.1197871875 -2.4285 1
6.1588496875 -0.5599003125 -3.238 1
6.1588496875 -1.1197871875 -2.4285 1
2.7994746875 0.5599003125 -3.238 1
2.7994746875 0.0 -2.4285 1
3.9192753125 0.5599003125 -3.238 1
3.9192753125 0.0 -2.4285 1
5.0390625 0.5599003125 -3.238 1
5.0390625 0.0 -2.4285 1
6.1588496875 0.5599003125 -3.238 1
6.1588496875 0.0 -2.4285 1
2.7994746875 1.6796875 -3.238 1
2.7994746875 1.1197871875 -2.4285 1
3.9192753125 1.6796875 -3.238 1
3.9192753125 1.1197871875 -2.4285 1
5.0390625 1.6796875 -3.238 1
5.0390625 1.1197871875 -2.4285 1
6.1588496875 1.6796875 -3.238 1
6.1588496875 1.1197871875 -2.4285 1
-6.71875 2.2395878125 -4.857 1
-6.1588537187 2.7994746875 -6.476 1
-6.71875 2.7994746875 -4.0475 1
-6.1588537187 2.2395878125 -5.6665 1
-5.5989587812 2.2395878125 -4.857 1
-5.0390625 2.7994746875 -6.476 1
-5.5989587812 2.7994746875 -4.0475 1
-5.0390625 2.2395878125 -5.6665 1
-4.4791621875 2.2395878125 -4.857 1
-3.9192753125 2.7994746875 -6.476 1
-4.4791621875 2.7994746875 -4.0475 1
-3.9192753125 2.2395878125 -5.6665 1
-3.359375 2.2395878125 -4.857 1
-2.7994746875 2.7994746875 -6.476 1
-3.359375 2.7994746875 -4.0475 1
-2.7994746875 2.2395878125 -5.6665 1
-6.71875 3.359375 -4.857 1
-6.1588537187 3.9192753125 -6.476 1
-6.71875 3.9192753125 -4.0475 1
-6.1588537187 3.359375 -5.6665 1
-5.5989587812 3.359375 -4.857 1
-5.0390625 3.9192753125 -6.476 1
-5.5989587812 3.9192753125 -4.0475 1
-5.0390625 3.359375 -5.6665 1
-4.4791621875 3.359375 -4.857 1
-3.9192753125 3.9192753125 -6.476 1
-4.4791621875 3.9192753125 -4.0475 1
-3.9192753125 3.359375 -5.6665 1
-3.359375 3.359375 -4.857 1
-2.7994746875 3.9192753125 -6.476 1
-3.359375 3.9192753125 -4.0475 1
-2.7994746875 3.359375 -5.6665 1
-6.71875 4.4791621875 -4.857 1
-6.1588537187 5.0390625 -6.476 1
-6.71875 5.0390625 -4.0475 1
-6.1588537187 4.4791621875 -5.6665 1
-5.5989587812 4.4791621875 -4.857 1
-5.0390625 5.0390625 -6.476 1
-5.5989587812 5.0390625 -4.0475 1
-5.0390625 4.4791621875 -5.6665 1
-4.4791621875 4.4791621875 -4.857 1
-3.9192753125 5.0390625 -6.476 1
-4.4791621875 5.0390625 -4.0475 1
-3.9192753125 4.4791621875 -5.6665 1
-3.359375 4.4791621875 -4.857 1
-2.7994746875 5.0390625 -6.476 1
-3.359375 5.0390625 -4.0475 1
-2.7994746875 4.4791621875 -5.6665 1
-6.71875 5.5989628125 -4.857 1
-6.1588537187 6.1588496875 -6.476 1
-6.71875 6.1588496875 -4.0475 1
-6.1588537187 5.5989628125 -5.6665 1
-5.5989587812 5.5989628125 -4.857 1
-5.0390625 6.1588496875 -6.476 1
-5.5989587812 6.1588496875 -4.0475 1
-5.0390625 5.5989628125 -5.6665 1
-4.4791621875 5.5989628125 -4.857 1
-3.9192753125 6.1588496875 -6.476 1
-4.4791621875 6.1588496875 -4.0475 1
-3.9192753125 5.5989628125 -5.6665 1
-3.359375 5.5989628125 -4.857 1
-2.7994746875 6.1588496875 -6.476 1
-3.359375 6.1588496875 -4.0475 1
-2.7994746875 5.5989628125 -5.6665 1
-6.1588537187 2.7994746875 -3.238 1
-6.1588537187 2.2395878125 -2.4285 1
-5.0390625 2.7994746875 -3.238 1
-5.0390625 2.2395878125 -2.4285 1
-3.9192753125 2.7994746875 -3.238 1
-3.9192753125 2.2395878125 -2.4285 1
-2.7994746875 2.7994746875 -3.238 1
-2.7994746875 2.2395878125 -2.4285 1
-6.1588537187 3.9192753125 -3.238 1
-6.1588537187 3.359375 -2.4285 1
-5.0390625 3.9192753125 -3.238 1
-5.0390625 3.359375 -2.4285 1
-3.9192753125 3.9192753125 -3.238 1
-3.9192753125 3.359375 -2.4285 1
-2.7994746875 3.9192753125 -3.238 1
-2.7994746875 3.359375 -2.4285 1
-6.1588537187 5.0390625 -3.238 1
-6.1588537187 4.4791621875 -2.4285 1
-5.0390625 5.0390625 -3.238 1
-5.0390625 4.4791621875 -2.4285 1
-3.9192753125 5.0390625 -3.238 1
-3.9192753125 4.4791621875 -2.4285 1
-2.7994746875 5.0390625 -3.238 1
-2.7994746875 4.4791621875 -2.4285 1
-6.1588537187 6.1588496875 -3.238 1
-6.1588537187 5.5989628125 -2.4285 1
-5.0390625 6.1588496875 -3.238 1
-5.0390625 5.5989628125 -2.4285 1
-3.9192753125 6.1588496875 -3.238 1
-3.9192753125 5.5989628125 -2.4285 1
-2.7994746875 6.1588496875 -3.238 1
-2.7994746875 5.5989628125 -2.4285 1
-2.2395878125 2.2395878125 -4.857 1
-1.6796875 2.7994746875 -6.476 1
-2.2395878125 2.7994746875 -4.0475 1
-1.6796875 2.2395878125 -5.6665 1
-1.1197871875 2.2395878125 -4.857 1
-0.5599003125 2.7994746875 -6.476 1
-1.1197871875 2.7994746875 -4.0475 1
-0.5599003125 2.2395878125 -5.6665 1
0.0 2.2395878125 -4.857 1
0.5599003125 2.7994746875 -6.476 1
0.0 2.7994746875 -4.0475 1
0.5599003125 2.2395878125 -5.6665 1
1.1197871875 2.2395878125 -4.857 1
1.6796875 2.7994746875 -6.476 1
1.1197871875 2.7994746875 -4.0475 1
1.6796875 2.2395878125 -5.6665 1
-2.2395878125 3.359375 -4.857 1
-1.6796875 3.9192753125 -6.476 1
-2.2395878125 3.9192753125 -4.0475 1
-1.6796875 3.359375 -5.6665 1
-1.1197871875 3.359375 -4.857 1
-0.5599003125 3.9192753125 -6.476 1
-1.1197871875 3.9192753125 -4.0475 1
-0.5599003125 3.359375 -5.6665 1
0.0 3.359375 -4.857 1
0.5599003125 3.9192753125 -6.476 1
0.0 3.9192753125 -4.0475 1
0.5599003125 3.359375 -5.6665 1
1.1197871875 3.359375 -4.857 1
1.6796875 3.9192753125 -6.476 1
1.1197871875 3.9192753125 -4.0475 1
1.6796875 3.359375 -5.6665 1
-2.2395878125 4.4791621875 -4.857 1
-1.6796875 5.0390625 -6.476 1
-2.2395878125 5.0390625 -4.0475 1
-1.6796875 4.4791621875 -5.6665 1
-1.1197871875 4.4791621875 -4.857 1
-0.5599003125 5.0390625 -6.476 1
-1.1197871875 5.0390625 -4.0475 1
-0.5599003125 4.4791621875 -5.6665 1
0.0 4.4791621875 -4.857 1
0.5599003125 5.0390625 -6.476 1
0.0 5.0390625 -4.0475 1
0.5599003125 4.4791621875 -5.6665 1
1.1197871875 4.4791621875 -4.857 1
1.6796875 5.0390625 -6.476 1
1.1197871875 5.0390625 -4.0475 1
1.6796875 4.4791621875 -5.6665 1
-2.2395878125 5.5989628125 -4.857 1
-1.6796875 6.1588496875 -6.476 1
-2.2395878125 6.1588496875 -4.0475 1
-1.6796875 5.5989628125 -5.6665 1
-1.1197871875 5.5989628125 -4.857 1
-0.5599003125 6.1588496875 -6.476 1
-1.1197871875 6.1588496875 -4.0475 1
-0.5599003125 5.5989628125 -5.6665 1
0.0 5.5989628125 -4.857 1
0.5599003125 6.1588496875 -6.476 1
0.0 6.1588496875 -4.0475 1
0.5599003125 5.5989628125 -5.6665 1
1.1197871875 5.5989628125 -4.857 1
1.6796875 6.1588496875 -6.476 1
1.1197871875 6.1588496875 -4.0475 1
1.6796875 5.5989628125 -5.6665 1
-1.6796875 2.7994746875 -3.238 1
-1.6796875 2.2395878125 -2.4285 1
-0.5599003125 2.7994746875 -3.238 1
-0.5599003125 2.2395878125 -2.4285 1
0.5599003125 2.7994746875 -3.238 1
0.5599003125 2.2395878125 -2.4285 1
1.6796875 2.7994746875 -3.238 1
1.6796875 2.2395878125 -2.4285 1
-1.6796875 3.9192753125 -3.238 1
-1.6796875 3.359375 -2.4285 1
-0.5599003125 3.9192753125 -3.238 1
-0.5599003125 3.359375 -2.4285 1
0.5599003125 3.9192753125 -3.238 1
0.5599003125 3.359375 -2.4285 1
1.6796875 3.9192753125 -3.238 1
1.6796875 3.359375 -2.4285 1
-1.6796875 5.0390625 -3.238 1
-1.6796875 4.4791621875 -2.4285 1
-0.5599003125 5.0390625 -3.238 1
-0.5599003125 4.4791621875 -2.4285 1
0.5599003125 5.0390625 -3.238 1
0.5599003125 4.4791621875 -2.4285 1
1.6796875 5.0390625 -3.238 1
1.6796875 4.4791621875 -2.4285 1
-1.6796875 6.1588496875 -3.238 1
-1.6796875 5.5989628125 -2.4285 1
-0.5599003125 6.1588496875 -3.238 1
-0.5599003125 5.5989628125 -2.4285 1
0.5599003125 6.1588496875 -3.238 1
0.5599003125 5.5989628125 -2.4285 1
1.6796875 6.1588496875 -3.238 1
1.6796875 5.5989628125 -2.4285 1
2.2395878125 2.2395878125 -4.857 1
2.7994746875 2.7994746875 -6.476 1
2.2395878125 2.7994746875 -4.0475 1
2.7994746875 2.2395878125 -5.6665 1
3.359375 2.2395878125 -4.857 1
3.9192753125 2.7994746875 -6.476 1
3.359375 2.7994746875 -4.0475 1
3.9192753125 2.2395878125 -5.6665 1
4.4791621875 2.2395878125 -4.857 1
5.0390625 2.7994746875 -6.476 1
4.4791621875 2.7994746875 -4.0475 1
5.0390625 2.2395878125 -5.6665 1
5.5989628125 2.2395878125 -4.857 1
6.1588496875 2.7994746875 -6.476 1
5.5989628125 2.7994746875 -4.0475 1
6.1588496875 2.2395878125 -5.6665 1
2.2395878125 3.359375 -4.857 1
2.7994746875 3.9192753125 -6.476 1
2.2395878125 3.9192753125 -4.0475 1
2.7994746875 3.359375 -5.6665 1
3.359375 3.359375 -4.857 1
3.9192753125 3.9192753125 -6.476 1
3.359375 3.9192753125 -4.0475 1
3.9192753125 3.359375 -5.6665 1
4.4791621875 3.359375 -4.857 1
5.0390625 3.9192753125 -6.476 1
4.4791621875 3.9192753125 -4.0475 1
5.0390625 3.359375 -5.6665 1
5.5989628125 3.359375 -4.857 1
6.1588496875 3.9192753125 -6.476 1
5.5989628125 3.9192753125 -4.0475 1
6.1588496875 3.359375 -5.6665 1
2.2395878125 4.4791621875 -4.857 1
2.7994746875 5.0390625 -6.476 1
2.2395878125 5.0390625 -4.0475 1
2.7994746875 4.4791621875 -5.6665 1
3.359375 4.4791621875 -4.857 1
3.9192753125 5.0390625 -6.476 1
3.359375 5.0390625 -4.0475 1
3.9192753125 4.4791621875 -5.6665 1
4.4791621875 4.4791621875 -4.857 1
5.0390625 5.0390625 -6.476 1
4.4791621875 5.0390625 -4.0475 1
5.0390625 4.4791621875 -5.6665 1
5.5989628125 4.4791621875 -4.857 1
6.1588496875 5.0390625 -6.476 1
5.5989628125 5.0390625 -4.0475 1
6.1588496875 4.4791621875 -5.6665 1
2.2395878125 5.5989628125 -4.857 1
2.7994746875 6.1588496875 -6.476 1
2.2395878125 6.1588496875 -4.0475 1
2.7994746875 5.5989628125 -5.6665 1
3.359375 5.5989628125 -4.857 1
3.9192753125 6.1588496875 -6.476 1
3.359375 6.1588496875 -4.0475 1
3.9192753125 5.5989628125 -5.6665 1
4.4791621875 5.5989628125 -4.857 1
5.0390625 6.1588496875 -6.476 1
4.4791621875 6.1588496875 -4.0475 1
5.0390625 5.5989628125 -5.6665 1
5.5989628125 5.5989628125 -4.857 1
6.1588496875 6.1588496875 -6.476 1
5.5989628125 6.1588496875 -4.0475 1
6.1588496875 5.5989628125 -5.6665 1
2.7994746875 2.7994746875 -3.238 1
2.7994746875 2.2395878125 -2.4285 1
3.9192753125 2.7994746875 -3.238 1
3.9192753125 2.2395878125 -2.4285 1
5.0390625 2.7994746875 -3.238 1
5.0390625 2.2395878125 -2.4285 1
6.1588496875 2.7994746875 -3.238 1
6.1588496875 2.2395878125 -2.4285 1
2.7994746875 3.9192753125 -3.238 1
2.7994746875 3.359375 -2.4285 1
3.9192753125 3.9192753125 -3.238 1
3.9192753125 3.359375 -2.4285 1
5.0390625 3.9192753125 -3.238 1
5.0390625 3.359375 -2.4285 1
6.1588496875 3.9192753125 -3.238 1
6.1588496875 3.359375 -2.4285 1
2.7994746875 5.0390625 -3.238 1
2.7994746875 4.4791621875 -2.4285 1
3.9192753125 5.0390625 -3.238 1
3.9192753125 4.4791621875 -2.4285 1
5.0390625 5.0390625 -3.238 1
5.0390625 4.4791621875 -2.4285 1
6.1588496875 5.0390625 -3.238 1
6.1588496875 4.4791621875 -2.4285 1
2.7994746875 6.1588496875 -3.238 1
2.7994746875 5.5989628125 -2.4285 1
3.9192753125 6.1588496875 -3.238 1
3.9192753125 5.5989628125 -2.4285 1
5.0390625 6.1588496875 -3.238 1
5.0390625 5.5989628125 -2.4285 1
6.1588496875 6.1588496875 -3.238 1
6.1588496875 5.5989628125 -2.4285 1
-6.71875 -6.71875 -1.619 1
-6.71875 -6.1588537187 -0.8095 1
-5.5989587812 -6.71875 -1.619 1
-5.5989587812 -6.1588537187 -0.8095 1
-4.4791621875 -6.71875 -1.619 1
-4.4791621875 -6.1588537187 -0.8095 1
-3.359375 -6.71875 -1.619 1
-3.359375 -6.1588537187 -0.8095 1
-6.71875 -5.5989587812 -1.619 1
-6.71875 -5.0390625 -0.8095 1
-5.5989587812 -5.5989587812 -1.619 1
-5.5989587812 -5.0390625 -0.8095 1
-4.4791621875 -5.5989587812 -1.619 1
-4.4791621875 -5.0390625 -0.8095 1
-3.359375 -5.5989587812 -1.619 1
-3.359375 -5.0390625 -0.8095 1
-6.71875 -4.4791621875 -1.619 1
-6.71875 -3.9192753125 -0.8095 1
-5.5989587812 -4.4791621875 -1.619 1