ITEM: TIMESTEP
1
ITEM: NUMBER OF ATOMS
9
ITEM: BOX BOUNDS pp pp pp
-6.71875 6.71875
-6.71875 6.71875
-6.47599983 6.47599983
ITEM: ATOMS x y z
0.0 -1.1197871875 1.6189999575
-1.1197871875 0.0 1.6189999575
-0.5599003125 0.0 0.8094999787
0.0 0.0 1.6189999575
0.5599003125 0.0 0.8094999787
1.1197871875 0.0 1.6189999575
0.0 1.1197871875 1.6189999575
0.0 -0.5599003125 2.4284999362
0.0 0.5599003125 2.4284999362
