ITEM: TIMESTEP
2
ITEM: NUMBER OF ATOMS
6
ITEM: BOX BOUNDS pp pp pp
-6.71875 6.71875
-6.71875 6.71875
-6.47599983 6.47599983
ITEM: ATOMS x y z
3.9192753125 0.5599003125 -6.47599983
-3.9192753125 -4.4791621875 0.8094999787
-2.2395878125 -5.5989587812 1.6189999575
4.4791621875 0.0 -1.6189999575
-1.6796875 6.1588496875 0.0
3.359375 6.1588496875 -0.8094999787
