ITEM: TIMESTEP
4
ITEM: NUMBER OF ATOMS
2298
ITEM: BOX BOUNDS pp pp pp
-6.71875 6.71875
-6.71875 6.71875
-6.476 6.476
ITEM: ATOMS x y z
-5.5911475625 -6.5686410313 -4.051825968
-4.472886875 -6.5621023438 -4.062045096
-2.795645 -6.2798275 -6.4618508466
-3.3286971875 -6.4301380313 -4.058561008
-6.1329825 -5.4036205313 -6.4751913704
-6.6736760562 -5.32710875 -4.040868576
-6.1878733437 -5.9645582187 -5.6655065816
-5.6175159688 -6.0264835938 -4.88219164
-5.61075825 -5.4657340313 -4.081214056
-5.0265521875 -6.0306304063 -5.6294844792
-4.4524753125 -5.980950625 -4.834683704
-4.5297678125 -5.41583925 -4.060283624
-3.9184825 -5.9046027813 -5.6884393928
-3.376870625 -5.8408969375 -4.817017176
-3.360423125 -5.280158125 -4.014783248
-2.8466940625 -5.7060905937 -5.6805244256
-6.1373698438 -4.27339375 -6.4414865466
-6.1840544063 -4.8453878125 -5.6656140832
-5.6091215625 -4.8824215625 -4.877192168
-5.0131415625 -4.3653465625 -6.4528449325
-5.607974 -4.3624709375 -4.017360696
-5.03406375 -4.9175875 -5.6484008752
-4.4636553125 -4.8466509375 -4.854448456
-4.4625265625 -4.2754228125 -4.0708136
-3.8953028125 -4.7967709375 -5.632203104
-3.322314375 -4.725189375 -4.83485208
-3.3822590625 -4.138131875 -4.08713312
-2.77866 -4.59782875 -5.6800387256
-6.125452125 -3.692866875 -5.6697742656
-5.5966945625 -3.806386875 -4.832999944
-5.5997032188 -3.2199071875 -4.060555616
-5.033929375 -3.776555625 -5.6937082664
-4.517821875 -3.7015071875 -4.858696712
-3.8942815625 -3.146820625 -6.4723826489
-4.4610215625 -3.15227625 -4.012231704
-3.9247578125 -3.71181375 -5.6494823672
-3.3672628125 -3.5578065625 -4.859305456
-3.3384796875 -2.9945334375 -4.076227536
-2.786534375 -3.48918125 -5.6141272928
-6.1502429687 -6.51678975 -3.249112816
-5.0289171875 -6.5671360312 -3.24428172
-3.9130134375 -6.4467790313 -3.2632564
-2.8204103125 -6.2550729375 -3.177358736
-6.1376600938 -5.3899411562 -3.1819826
-6.2031598437 -5.9732469063 -2.433382904
-5.074080625 -5.466681375 -3.213702048
-5.01208 -6.0263384687 -2.41211572
-3.9541321875 -5.3549646875 -3.278708136
-3.927835 -5.9028653125 -2.41600132
-2.767076875 -5.1366859375 -3.267154952
-2.84794375 -5.6743633125 -2.416765488
-6.1742315938 -4.255521875 -3.240797632
-6.1573003438 -4.793236875 -2.423111968
-5.017643125 -4.355873125 -3.258438256
-5.0196453125 -4.88678875 -2.412322952
-3.915983125 -4.2534121875 -3.215295144
-3.8914596875 -4.8289134375 -2.416169696
-2.83461375 -4.046864375 -3.261326552
-2.8136646875 -4.5999653125 -2.42208876
-6.1577679687 -3.1444825 -3.265406432
-6.1203525937 -3.68837875 -2.411299744
-5.043711875 -3.2419446875 -3.243983824
-5.057203125 -3.8028259375 -2.430650032
-3.88273875 -3.1497096875 -3.231096584
-3.9293265625 -3.6955678125 -2.411947344
-2.81607 -2.9471528125 -3.204376608
-2.74517375 -3.5202353125 -2.398399552
-2.2553096875 -6.2195979375 -4.023396328
-2.273168125 -5.6748618437 -4.873824648
-6.1465275 -2.601715 -5.6259900296
-5.573170875 -2.65788375 -4.837986464
-5.0407825 -2.6647771875 -5.6811344648
-4.4667325 -2.61789375 -4.881582896
-3.91687 -2.571185 -5.72776296
-3.3981421875 -2.4114265625 -4.84845168
-2.818891875 -2.4115340625 -5.6544054224
-6.12531775 -2.635120625 -2.377041704
-4.98241 -2.678765625 -2.451178952
-3.9074771875 -2.5552884375 -2.472627464
-2.78226125 -2.3847396875 -2.400238736
-2.274673125 -2.284724375 -4.825371216
-2.2459034375 -4.5384215625 -4.815048472
-2.2489403125 -3.9774328125 -4.010275952
-2.2501228125 -2.8650765625 -4.059895064
-6.6987235563 -3.6713265625 -4.868760416
-6.153692375 -6.5195874375 -6.4617987796
-5.03782625 -5.482817125 -6.459094143
-2.8278815625 -4.033695625 -6.4698758281
-2.187114375 -3.4325153125 -4.851547208
-1.70489625 -6.1257598438 -6.4070896611
-1.12961 -6.542605875 -4.820190416
-0.5807553125 -6.0120208125 -6.4486738704
-1.177528125 -5.9953099375 -3.99284256
-0.5481290625 -6.580198625 -5.6564984656
-0.025988125 -6.4375273125 -4.812004752
-0.0196725 -5.8439714375 -4.077963104
0.541719375 -6.3090231563 -5.6294741176
1.12063375 -6.3496151562 -4.849008616
1.0990396875 -5.76014025 -4.092016024
1.68006375 -6.2457002813 -5.6330993824
-2.1922071875 -5.1303434375 -4.047966272
-1.71785 -5.5387843125 -5.6519976456
-1.1071290625 -5.4874624687 -4.919001224
-0.55185125 -4.8395425 -6.4157204854
-1.1240065625 -4.95612625 -4.040985144
-0.5340465625 -5.4350790625 -5.683836252
0.00134375 -5.25529875 -4.832870424
0.5481425 -4.7224884375 -6.4728339743
-0.04907375 -4.7042403125 -4.009343408
0.577731875 -5.27862625 -5.6412073344
1.1241678125 -5.1361215625 -4.792460184
1.1082175 -4.5573953125 -4.042863184
1.651011875 -5.1671890625 -5.6541709912
-1.6998975 -4.4169196875 -5.69075262
-1.153475 -4.399464375 -4.858023208
-1.077983125 -3.8435146875 -4.039871272
-0.5983046875 -4.2488703125 -5.6637489952
-0.007498125 -4.188280625 -4.893550544
0.0335534375 -3.63183375 -4.032644056
0.56303125 -4.159416875 -5.6733736264
1.102331875 -4.005799375 -4.853036688
1.6773359375 -3.4755421875 -6.4394226454
1.1220178125 -3.44392375 -4.014550112
1.6808028125 -4.066106875 -5.6716173352
-1.6992928125 -2.74334625 -6.4657935261
-1.643325625 -3.308554375 -5.6653446816
-1.0927240625 -3.2631490625 -4.81315748
-1.1442971875 -2.700319375 -4.016635384
-0.5598734375 -3.1474925 -5.696684636
0.5330790625 -2.9792953125 -5.671739084
-0.0140959375 -3.087104375 -4.84139284
1.1197871875 -2.935825 -4.910504712
1.1300534375 -2.383705 -4.068767184
1.675306875 -2.369515 -6.4582582209
1.65007125 -2.3475178125 -3.18677484
1.714329375 -2.9140965625 -5.6389394392
-1.711426875 -6.1486224063 -3.174716528
-0.5565275 -6.0110264375 -3.263657912
-0.580150625 -6.522170125 -2.382442688
0.54217625 -5.7762988438 -3.24842636
0.561176875 -6.3208266563 -2.40240172
1.621771875 -5.6967945313 -3.2405904
1.6941596875 -6.2548512187 -2.43348652
-1.677725625 -4.9502809375 -3.164847104
-1.67974125 -5.5547171562 -2.436128728
-0.5965175 -4.8650334375 -3.179081352
-0.5396096875 -5.4576634687 -2.432683496
0.5519990625 -4.7185378125 -3.26558776
0.5524559375 -5.22906875 -2.382870104
1.6998303125 -4.60868625 -3.277425888
1.6786528125 -5.143875 -2.419912824
-1.655043125 -3.8667078125 -3.276584008
-1.73703875 -4.361731875 -2.374114552
-0.54658375 -3.6952721875 -3.206967008
-0.53217875 -4.2769278125 -2.436828136
0.5624803125 -3.5491796875 -3.188497456
0.5874203125 -4.15557375 -2.453575072
1.6913109375 -3.5016109375 -3.20354768
1.643110625 -4.0788053125 -2.40641684
-1.70581 -2.7279603125 -3.222962728
-1.7097875 -3.3137009375 -2.447008408
0.03198125 -2.5052471875 -4.042306248
-0.6281359375 -3.1378846875 -2.422503224
0.5830934375 -2.417755625 -3.21021796
0.5193459375 -2.984818125 -2.41030244
2.2145134375 -5.77417975 -4.011610008
2.2028496875 -3.5282709375 -4.085824968
2.197515 -2.421034375 -4.029975944
-0.5438828125 -2.5947275 -3.27368276
1.7062265625 -2.93426625 -2.425702368
2.22530375 -5.2161821875 -4.844669696
2.21810125 -4.1042425 -4.867478168
-1.6629309375 -4.99052625 -6.4744923095
0.5819378125 -3.5665409375 -6.4205496386
6.7112115625 -6.4257305313 -4.01149344
6.6880453125 -4.7813446875 -4.87442044
6.70203375 -4.221928125 -4.056993816
6.698755 -3.111560625 -4.052603088
6.7116953125 -2.5478575 -4.828078184
2.2801153125 -4.653433125 -4.04108876
6.67919 -5.884249 -4.8663902
2.2589646875 -6.3215509375 -4.839216904
2.7907 -6.4502835313 -5.6777656496
3.3530190625 -6.4530610625 -4.840784096
3.393694375 -5.9105529063 -4.001572208
3.8968078125 -6.5583304375 -5.7053780184
4.485948125 -6.120055625 -4.096212472
5.0349640625 -6.709315585 -5.631769212
6.1336946875 -6.4059021562 -6.4726206678
5.5533290625 -6.2601482813 -4.080372176
2.806153125 -4.6784134375 -6.4469403747
2.767695 -5.269838125 -5.6977816704
3.3190221875 -5.3890623438 -4.891568888
3.3483428125 -4.8239415625 -4.083933976
3.933075625 -5.4354821875 -5.6211006496
4.508845625 -5.5331835625 -4.853865616
4.414675625 -4.967279375 -4.063638192
5.0610865625 -5.655016 -5.6498230048
5.6344109375 -5.66528225 -4.828790544
6.16405 -5.229901875 -6.4665629915
5.60548 -5.12178375 -3.995135064
6.13626125 -5.8200419375 -5.7226287872
2.8165134375 -4.136143125 -5.6271272152
3.3965028125 -4.2431728125 -4.872762584
3.30825875 -3.7000425 -4.04808284
3.96110625 -4.3488990625 -5.6562316544
4.5142071875 -4.3816865625 -4.814245448
4.5183728125 -3.8283303125 -4.000173392
5.03148375 -4.53547875 -5.7143369168
5.5586771875 -4.578613125 -4.845317296
5.6518528125 -4.01281375 -4.043860488
6.1211709375 -4.66716625 -5.6744175576
2.2974496875 -2.9617728125 -4.867141416
2.8539234375 -3.0497884375 -5.6682083688
3.38866875 -3.1054734375 -4.78764204
3.39716125 -2.5265725 -4.012348272
3.90354 -3.2260346875 -5.7150868376
4.4297659375 -3.282969375 -4.841962728
4.5531625 -2.7178015625 -4.051022944
4.9844525 -3.40414875 -5.6677705912
5.5666590625 -3.4653296875 -4.902293144
6.1607040625 -2.9777365625 -6.4198861076
5.6014353125 -2.94146875 -4.048005128
6.159938125 -3.554621875 -5.6394575192
2.79827875 -5.85267625 -3.273799328
2.802551875 -6.4017204062 -2.45272024
3.966535 -6.004686625 -3.212238472
3.8522625 -6.5809269375 -2.453290128
5.020008125 -6.1717819375 -3.201812112
6.1073975 -6.3667936562 -3.27277612
2.816580625 -4.700733125 -3.187370632
2.7588665625 -5.3042515625 -2.456968496
3.8777803125 -4.8798146875 -3.198716584
3.911414375 -5.4473837813 -2.40207792
4.9898678125 -5.081928125 -3.30165908
5.0918046875 -5.60340525 -2.405484296
6.1899575 -5.243446875 -3.257894272
6.14453875 -5.8144613437 -2.454054296
2.76377125 -3.5861328125 -3.228946552
2.814860625 -4.1318565625 -2.402492384
3.8993340625 -3.7836909375 -3.303265128
3.970593125 -4.299785 -2.419614928
5.0883378125 -3.9641834375 -3.231731232
5.013235625 -4.5453553125 -2.44818704
6.182029375 -4.09204125 -3.166984184
6.1037021875 -4.69646 -2.443019192
2.7910896875 -2.4941478125 -3.297864144
2.8366965625 -3.0227925 -2.416998624
3.975135 -2.68293125 -3.252609856
3.880454375 -3.240023125 -2.443096904
5.070049375 -2.8101709375 -3.161531392
4.9874490625 -3.404498125 -2.435740168
6.1581240625 -2.9496925 -3.223895272
6.195198125 -3.501624375 -2.417736888
5.6007634375 -2.37741625 -4.886932072
6.181008125 -2.3842425 -5.6719320688
6.1897828125 -2.38827375 -2.403463784
5.0203575 -2.2661671875 -5.6687432864
4.4271053125 -6.6948377 -4.87688132
2.7895846875 -5.85026825 -6.4294309545
3.9087 -5.9668614063 -6.4609680383
6.19753625 -4.0972146875 -6.4679659651
5.0818475 -2.8408621875 -6.4507011174
-5.6110847812 -2.0732046875 -4.06731656
-3.9126640625 -1.9592815625 -6.4447233809
-4.4956634375 -2.0784453125 -4.00825544
-3.3512990625 -1.872999375 -4.003748144
-6.6836835 -1.363288125 -4.84670316
-6.179169875 -0.9704696875 -6.4421639362
-6.13653 -1.549639375 -5.6684596376
-5.5660140625 -1.5073246875 -4.85810092
-5.5956880937 -0.967311875 -3.99523868
-5.0285275 -1.53214375 -5.6953920264
-4.4719059375 -1.5521521875 -4.871804136
-4.4422090625 -0.981985625 -4.081589664
-3.9137121875 -1.383605625 -5.6665401512
-3.334945625 -1.3414521875 -4.875987632
-2.808733125 -0.6818859375 -6.4459034376
-3.354456875 -0.7886334375 -4.035959768
-2.778901875 -1.2852834375 -5.7121596856
-6.67483195 -0.256898125 -4.877490064
-6.6969215875 0.264906875 -3.990459392
-6.146317875 -0.3706734375 -5.7342039896
-5.6102704688 -0.4501696875 -4.878578032
-5.5724331562 0.1159790625 -4.044430376
-5.0139075 -0.407666875 -5.6667927152
-4.4932715625 -0.3950221875 -4.81464696
-4.4783425 0.1964159375 -4.08292372
-3.9326590625 -0.298715625 -5.650964076
-3.3564859375 -0.2375615625 -4.881880792
-3.3253378125 0.298205 -4.051553976
-2.794489375 -0.11604625 -5.6675970344
-6.172633875 0.80028375 -5.6499136688
-5.6202195937 0.65752375 -4.857660552
-5.6018169375 1.2492171875 -4.105252968
-5.0392775 0.6860246875 -5.6278551176
-4.445689375 0.7650775 -4.872982768
-3.9548578125 1.39346875 -6.4580842755
-4.4956903125 1.3096590625 -4.042461672
-3.9027203125 0.8085209375 -5.702396468
-3.360530625 0.878678125 -4.836743072
-2.8247103125 1.020900625 -5.6858282696
-6.17498275 -2.083645625 -3.228622752
-5.08082625 -2.0999184375 -3.221304872
-3.919046875 -1.98224625 -3.237326496
-2.7524434375 -1.854401875 -3.270846272
-6.1833274375 -0.95013875 -3.243517552
-6.1432904063 -1.504274375 -2.442306832
-5.002001875 -0.961023125 -3.255886712
-5.04169625 -1.5220253125 -2.442708344
-3.9305090625 -0.8192978125 -3.206539592
-3.90182 -1.4196584375 -2.458665208
-2.8082090625 -0.757848125 -3.19823736
-2.7880259375 -1.3389796875 -2.39618476
-6.1113199063 0.23580125 -3.220268712
-6.166087125 -0.3675290625 -2.488545472
-5.006033125 0.1491025 -3.221602768
-5.0701165625 -0.4186453125 -2.412089816
-3.9153246875 0.2463765625 -3.264927208
-3.9153784375 -0.2711553125 -2.375539272
-6.144167875 1.33735375 -3.225138664
-6.1815980313 0.7816996875 -2.40764728
-5.0715409375 1.2542696875 -3.249164624
-4.9934421875 0.7119321875 -2.4194336
-2.7886978125 1.5767428125 -3.254733984
-3.893623125 0.8054034375 -2.401210136
-2.817333125 0.446904375 -3.17861508
-2.7956853125 1.028694375 -2.423889088
-2.2662478125 -1.1133371875 -4.834748464
-2.250969375 0.4977384375 -4.014096792
-2.2493434375 1.0387053125 -4.894612608
-6.1629521563 1.8469575 -5.6577807136
-5.5861205937 1.8553290625 -4.84184616
-5.06631375 1.778453125 -5.6897475448
-4.4902346875 1.8659446875 -4.869200784
-3.9286009375 1.95687625 -5.6512632672
-3.3491490625 1.9857265625 -4.87098816
-3.353919375 1.4410509375 -4.042461672
-2.795295625 2.1447728125 -5.6888422
-6.1239619062 1.9030321875 -2.407310528
-5.0327065625 1.8193971875 -2.444158968
-3.9206996875 1.3406996875 -3.257246672
-3.95196875 1.8889496875 -2.458056464
-2.25303875 2.1525665625 -4.8382196
-2.7646446875 -0.1727525 -2.472174144
-2.8452428125 2.112939375 -2.402194488
-2.259730625 -0.55496875 -4.006234928
-6.7113112688 -1.945239375 -4.093324176
-6.6888490094 1.3668759375 -4.075709456
-6.1303836875 0.235613125 -6.4445359654
-1.706911875 -2.2054565625 -5.5942874192
1.6990778125 -1.762543125 -2.425119528
-1.6980028125 0.5427540625 -3.161427776
-2.1921803125 -1.696135 -4.0740516
-1.10037 -1.5956359375 -4.102364672
-0.5359815625 -2.02417125 -5.6570074792
-0.58738 -1.4504840625 -3.197343672
-1.088571875 -2.167656875 -4.875624976
0.040661875 -1.9585021875 -4.861170544
-0.0420459375 -1.3975 -4.041567984
0.5869903125 -1.857815 -5.6973464832
1.1416903125 -1.8020359375 -4.851806248
1.0988246875 -1.259765625 -4.022904152
1.6863525 -1.7798640625 -5.6714580256
-1.69436125 -1.144686875 -5.6663264432
-1.1544425 -0.9903571875 -4.83375116
-1.108620625 -0.4267346875 -4.060853512
-0.5785246875 -0.9084825 -5.6053432464
0.03509875 -0.85484 -4.890999
0.5995409375 -0.7183821875 -5.6768538288
0.0072025 -0.3050178125 -4.068119584
1.1457753125 -0.6959415625 -4.832637288
1.116575625 -0.118921875 -4.02528732
1.68608375 -0.6898678125 -5.7075746776
-2.210011875 -0.0355153125 -4.900881376
-1.7018325 0.5968803125 -6.4433437338
-1.642788125 -0.0024725 -5.6980484816
-1.122595625 0.1614515625 -4.818234664
-1.1759425 0.713611875 -4.003385488
-0.5708115625 0.1692453125 -5.6775467608
-0.028890625 0.2809109375 -4.825539592
0.0196053125 0.8518971875 -4.050958184
0.5178409375 0.399281875 -5.6477869504
1.106175 0.4064709375 -4.88037836
1.676166875 0.403581875 -5.6524587368
1.1513115625 0.9720821875 -4.077043512
-2.2165828125 1.5695403125 -4.050517816
-1.67458125 1.16718125 -5.6554804384
-1.085239375 1.237835625 -4.8906752
-0.5703009375 1.8810215625 -6.4672438004
-1.1437059375 1.7864215625 -4.04063544
-0.5211465625 1.2966515625 -5.6966302376
-0.0074578125 1.4326659375 -4.804660968
-0.0325321875 2.0141065625 -4.042992704
0.5360621875 1.4826803125 -5.6697392952
1.1021840625 1.547650625 -4.857608744
1.66006875 1.5623646875 -5.662705064
-1.6511328125 -1.6329384375 -3.232806248
-1.6770403125 -2.187974375 -2.388076808
-0.5438425 -0.880236875 -2.391703368
0.5371103125 -1.3146175 -3.250291448
0.5477125 -1.8471321875 -2.408592776
1.7057025 -1.238050625 -3.29123272
-1.7245284375 -1.115231875 -2.349790696
-0.55088375 -0.350235 -3.242844048
-0.575985 0.2099475 -2.413877192
0.55341 -0.151816875 -3.229037216
1.70973375 -0.1529725 -3.25496712
-1.636338125 1.17008375 -2.475334432
-1.65587625 -0.5880115625 -3.263994664
-0.5494728125 0.738014375 -3.289523056
-1.6544384375 -0.0557253125 -2.418229064
0.52336375 1.4934571875 -2.374658536
0.586869375 0.9549359375 -3.245162456
1.6635759375 1.0054475 -3.168551376
1.6469134375 0.4070353125 -2.448743976
-1.69887625 1.754641875 -3.190647488
-0.5382525 1.2799353125 -2.435273896
0.551824375 2.0119834375 -3.260290392
1.1234421875 2.0969890625 -4.026737944
1.6705634375 1.600218125 -2.430753648
2.20251375 -0.704555 -4.810994496
2.2037634375 0.956024375 -4.012166944
1.6988225 2.1416284375 -3.243297368
-0.561445625 -2.04298375 -2.463625824
0.5941121875 -0.73696625 -2.475088344
0.509791875 0.3938128125 -2.413618152
1.63201125 -0.703668125 -2.408722296
-0.5825425 1.8493628125 -3.230384224
-0.566713125 -1.4547840625 -6.451834806
0.568701875 -0.159933125 -6.4682455081
-1.66985125 -0.5741171875 -6.4695049865
0.5148040625 -1.2879978125 -6.4694299426
1.6899940625 0.9785590625 -6.4413724394
1.68898625 2.117185625 -6.4617996862
3.8802259375 -2.1316309375 -2.435986256
6.6982040625 -0.8017753125 -4.042371008
6.7101365625 1.936800625 -4.851974624
6.66892375 0.7932828125 -4.861196448
2.2585884375 0.425296875 -4.882502488
2.250593125 -1.8512709375 -4.829256816
2.2896559375 -1.2922171875 -4.04044116
2.7749646875 -1.9232690625 -5.6989952728
3.320245 -1.98488 -4.844294088
3.9492678125 -1.5579975 -6.4507825855
3.408475625 -1.4101178125 -4.05961012
3.8627303125 -2.12790875 -5.6633215792
4.4557675 -2.1696590625 -4.899625032
5.0338621875 -1.6794053125 -6.420189832
4.46512 -1.639079375 -4.042345104
5.5858478125 -1.8384515625 -4.03856312
2.8429315625 -0.2729290625 -6.4655720599
2.8018128125 -0.2400340625 -3.183510936
2.7377965625 -0.83339375 -5.649707732
3.35099 -0.8671084375 -4.9101032
3.9217746875 -0.395626875 -6.4118093699
3.3442040625 -0.350235 -4.018176672
3.9211296875 -0.983598125 -5.673001904
4.499600625 -1.0954115625 -4.892449624
4.456224375 -0.550615 -4.038770352
5.0797915625 -1.08698625 -5.6840149896
5.5954153125 -1.279814375 -4.825992912
5.594756875 -0.668139375 -4.110977752
6.1802825 -1.29731 -5.6257607792
2.27023875 -0.128113125 -4.063262584
2.814161875 0.29326 -5.6835526032
3.374828125 0.1944809375 -4.873332472
3.3471065625 0.752419375 -4.040130312
3.953823125 0.208200625 -5.6812808224
4.473531875 0.0058990625 -4.82455524
4.4687884375 0.6200465625 -4.106703592
5.050054375 -0.0077265625 -5.6214943904
5.6321534375 -0.074954375 -4.831588176
6.14797875 0.313604375 -6.4579745721
5.568903125 0.495494375 -4.043925248
6.16356625 -0.237763125 -5.659687248
2.2410525 1.4930675 -4.889911032
2.8304346875 1.4717421875 -5.6753824816
3.35228 1.30763 -4.82902368
3.3416240625 1.91914375 -4.105240016
3.9239515625 1.28011 -5.6201927144
4.50425 1.2093615625 -4.842972984
5.0138403125 1.61577875 -6.4482332434
4.4491428125 1.771358125 -4.037708288
5.0483478125 1.0391621875 -5.6661554768
5.6245075 1.0484340625 -4.871001112
5.6169959375 1.5764875 -3.992156104
6.16023375 0.921086875 -5.748311308
2.8416684375 -1.3821678125 -3.227431168
2.779761875 -1.959751875 -2.436374816
3.93089875 -1.5368065625 -3.169147168
5.0296428125 -1.6487946875 -3.237948192
5.0669184375 -2.2048653125 -2.44171104
6.1736846875 -1.8555575 -3.2726466
2.7890203125 0.3539975 -2.424666208
2.759175625 -0.8235171875 -2.429458448
3.92079375 -0.3658628125 -3.219491592
3.947641875 -0.9386496875 -2.447384016
5.0502290625 -0.5566753125 -3.27057428
5.0590171875 -1.0976690625 -2.399124864
6.117905625 -0.7840378125 -3.232832152
6.15905125 -1.32698 -2.39663808
2.807335625 2.0105053125 -3.22705556
2.8012753125 0.907165625 -3.24020184
3.93014625 0.7287021875 -3.247623336
3.907275625 0.184926875 -2.400925192
4.9949740625 0.50525 -3.23385536
5.0562759375 -0.038995625 -2.385460504
6.134245625 0.33841 -3.262013008
6.2010971875 -0.209625 -2.442669488
2.24701875 2.0407128125 -4.055879944
3.866694375 1.79439 -3.240344312
3.93519875 1.2585965625 -2.384994232
5.0188928125 1.6369696875 -3.267750744
5.0728175 1.082175625 -2.457266392
6.2128146875 1.49247625 -3.240551544
6.135213125 0.911815 -2.477471512
5.0280840625 2.222051875 -5.7410724352
5.5365590625 2.0962903125 -4.873112288
6.1481534375 2.074830625 -5.6405584392
6.1076259375 2.029035625 -2.406973776
2.7941534375 1.4439803125 -2.401210136
4.98687125 2.2029034375 -2.471669016
2.7853115625 0.8934190625 -6.4210047718
6.154831875 1.5330575 -6.4542289832
-6.6967020187 6.4677375 -4.84573176
-6.1753952813 6.32567625 -5.6969423808
-5.6205434375 6.28918 -4.850277912
-5.0667303125 6.31460375 -5.689412088
-4.5222965625 6.300763125 -4.841962728
-3.971936875 6.4456865625 -5.670476264
-3.386706875 6.4658025 -4.904106424
-2.80526625 6.602461875 -5.655335376
-6.14251775 6.3426209375 -2.466876776
-5.085099375 6.3000778125 -2.424925248
-3.9539171875 6.4465465625 -2.404512896
-2.769979375 6.5826146875 -2.44397764
-3.895988125 2.4853059375 -3.234192112
-5.6188731563 2.40988125 -4.020158328
-4.4368878125 2.4173525 -4.062187568
-6.6770025094 3.083879375 -4.885066984
-6.1404685312 2.971004375 -5.7079515808
-5.5837394688 2.9393053125 -4.880404264
-5.6279622813 3.508155 -4.0575378
-5.006275 2.89578125 -5.7027630096
-4.4986196875 3.00833375 -4.820527168
-4.543165 3.58012625 -4.043212888
-3.9391225 3.0289065625 -5.6668535896
-3.3889778125 3.1372396875 -4.827845048
-3.370098125 3.712431875 -4.058301968
-2.8282578125 3.250719375 -5.6218596368
-6.6881721625 4.7168178125 -4.078144432
-6.175611625 4.1530609375 -5.647745504
-5.6059503125 4.0476303125 -4.891568888
-5.0217146875 4.600973125 -6.448431927
-5.5962793438 4.60255875 -4.085799064
-5.0247246875 4.029825625 -5.647745504
-4.4396021875 4.1263471875 -4.886543512
-4.5266234375 4.6644653125 -4.030325648
-3.8816771875 4.107440625 -5.7047912928
-3.368324375 4.3108575 -4.819983184
-3.4146703125 4.8640659375 -4.005483712
-2.8098215625 4.3014109375 -5.654694252
-6.1885479063 5.2100278125 -5.6666593096
-5.6041886562 5.2039003125 -4.841574168
-5.5985368437 5.7453240625 -4.00870876
-5.089829375 5.183730625 -5.6891193728
-4.4938359375 5.193083125 -4.915245144
-3.9169909375 5.8707765625 -6.4661086224
-4.437680625 5.734668125 -4.064907488
-3.912865625 5.307140625 -5.6717934824
-3.3354428125 5.3829953125 -4.89980636
-2.826201875 6.0187771875 -6.4038716072
-3.3778246875 5.931205 -4.046774688
-2.7583425 5.4059465625 -5.7047692744
-6.2007975313 2.42815625 -3.257803608
-5.0273853125 2.3733715625 -3.29039084
-3.3340721875 2.55715625 -4.071189208
-2.784491875 2.67691125 -3.239787376
-6.1564403437 3.585474375 -3.231731232
-6.1423054375 2.9962534375 -2.464869216
-5.0609790625 3.476039375 -3.203379304
-5.0367109375 2.8882025 -2.42487344
-3.9431134375 3.5525121875 -3.279498208
-3.9079878125 3.0307609375 -2.413113024
-2.8024175 3.7800225 -3.26532872
-2.802605625 3.23343875 -2.430675936
-6.1415529375 4.691810625 -3.214479168
-6.2087915 4.130338125 -2.403347216
-5.0792540625 4.6248784375 -3.200296728
-5.008505625 4.0447009375 -2.428992176
-3.9599909375 4.6808321875 -3.209945968
-3.877175625 4.109536875 -2.44378336
-2.8020278125 4.8589328125 -3.279226216
-2.806825 4.3258134375 -2.407504808
-6.1926597812 5.775786875 -3.277011424
-6.150144875 5.2683465625 -2.391988312
-5.0043803125 5.7607234375 -3.266196504
-5.056020625 5.216303125 -2.437838392
-3.9214790625 5.881325 -3.178835264
-3.9077459375 5.2585909375 -2.457797424
-2.8361725 5.9956109375 -3.18470252
-2.771591875 5.398461875 -2.437022416
-2.268814375 4.4317546875 -4.799609688
-2.2475025 5.032935 -4.071098544
-2.2552021875 5.620503125 -4.829477
-2.2951115625 6.1694653125 -4.004227368
-6.7184008951 5.3073825 -4.824283248
-6.1968442187 2.40859125 -6.4690492185
-6.172623125 3.579965 -6.4432098102
-5.0850321875 3.49219125 -6.4656513131
-3.9454784375 4.711536875 -6.4179986126
-1.63211875 6.70278625 -5.6926682208
1.6866615625 6.643526875 -6.449163715
-2.214688125 6.6887978125 -4.908302872
-1.65372625 6.69123 -2.435727216
1.119316875 2.6505603125 -4.833841824
-1.6907196875 2.85761875 -6.4619977223
-2.220735 2.7200321875 -4.039819464
-1.7133215625 2.28588 -5.6909753944
-1.14638 2.333744375 -4.877127408
-0.58222 4.129693125 -6.4385130264
-1.094591875 2.895109375 -4.05417028
-0.572034375 2.4272425 -5.6381985848
0.020881875 2.54904 -4.885585064
0.547094375 3.17506625 -6.4702532494
-0.0287025 3.10024625 -4.047992176
0.5926071875 2.602924375 -5.6857052256
1.68345 2.6986934375 -5.6806940968
1.125605625 3.7860290625 -4.85104208
-2.2388621875 3.270123125 -4.859046416
-1.697129375 4.0107040625 -6.4676751279
-2.228018125 3.83775 -4.069479544
-1.695355625 3.4259175 -5.6815981464
-1.1413678125 3.454109375 -4.860859696
-1.1011628125 4.00131125 -4.009641304
-0.528174375 2.9675375 -6.4717153359
-0.586493125 3.54492 -5.6979396848
0.0353271875 4.1966521875 -4.029781664
-0.0316990625 3.6478378125 -4.882904
0.560263125 3.7217978125 -5.6435024288
1.1140896875 4.3794559375 -4.090345216
1.682670625 3.768009375 -5.6438055056
-1.7235609375 4.540504375 -5.620772964
-1.124853125 4.5369434375 -4.858826232
-0.577570625 5.2863259375 -6.4758110083
-1.1178253125 5.109770625 -4.078921552
-0.58695 4.712155 -5.6855860672
-0.0247921875 4.7387075 -4.865651936
0.5325146875 5.4013509375 -6.4325858026
-0.0157353125 5.2884490625 -4.015469704
0.537258125 4.81497875 -5.6811849776
1.0915146875 4.9565965625 -4.860250952
1.67350625 5.4647490625 -6.436778365
1.1254846875 5.48362875 -4.006260832
1.6434734375 4.8675059375 -5.6790297648
-1.6783975 5.58306625 -5.6508721168
-1.1496184375 5.7197390625 -4.796630728
-1.14288625 6.306138125 -4.058418536
-0.593158125 5.8124309375 -5.6113581552
0.0011690625 5.8316465625 -4.849202896
0.5772078125 6.587519375 -6.4625389864
-2.6875e-05 6.4055890625 -4.074349496
0.5263334375 6.003041875 -5.7032085584
1.0834925 6.0157134375 -4.886763696
1.1136596875 6.5575 -3.999499888
1.66544375 6.0504628125 -5.6961328808
-1.65308125 2.8577934375 -3.2383238
-1.714329375 2.32286 -2.391884696
-0.568056875 2.98076 -3.170416464
-0.523551875 2.3981503125 -2.414732024
1.078466875 3.2365696875 -4.052719656
0.6110434375 2.5725690625 -2.436685664
1.6531753125 3.227069375 -3.271947192
-1.687830625 3.9849040625 -3.250071264
-1.72800875 3.429115625 -2.42059928
-0.52863125 4.139260625 -3.232987576
-0.6104790625 3.579185625 -2.437138984
0.588455 4.2821684375 -3.200296728
0.5663503125 3.7039259375 -2.424329456
1.654559375 4.3180465625 -3.240111176
1.6990778125 3.760699375 -2.408968384
-1.6878575 5.0782328125 -3.25729848
-1.70263875 4.5281553125 -2.413009408
-0.596759375 5.2799028125 -3.223131104
-0.6014759375 4.7026278125 -2.444793616
0.5464359375 5.4101659375 -3.230371272
0.52003125 4.85959125 -2.425249048
1.6880725 5.455275625 -3.212108952
1.68995375 4.8762134375 -2.431854568
-1.6919425 6.1353340625 -3.260588288
-1.69038375 5.614295 -2.371083784
-0.56862125 6.364645 -3.2661706
-0.56948125 5.8434446875 -2.40687016
0.5304184375 6.5747940625 -3.226369104
0.5332134375 5.9926546875 -2.455336544
1.68732 6.61345375 -3.20892276
1.632925 6.02403125 -2.44093392
2.2224146875 3.2008528125 -4.078817936
2.2290259375 4.3340371875 -4.023318616
2.18563625 5.9552446875 -4.860574752
2.2139759375 6.526459375 -4.076214584
0.52497625 3.1458128125 -3.226550432
1.66297125 2.6935065625 -2.402129728
2.2191628125 2.6186328125 -4.8421052
2.21874625 4.864401875 -4.88666008
4.99708375 6.7001659375 -2.394449192
4.4765284375 2.3181703125 -4.894029768
6.685774375 2.5210496875 -4.084387296
6.7021278125 3.6166225 -4.020158328
2.26529375 3.7792834375 -4.840602768
5.599701875 6.610578125 -4.858774424
6.1601934375 6.483755 -5.6445036184
6.2033278125 6.540165625 -2.399008296
6.6700525 4.1558828125 -4.868022152
6.6747825 5.8893875 -4.070476848
2.7972709375 2.554818125 -5.6294870696
3.3895825 2.503916875 -4.847972456
3.330995 3.0506215625 -4.020261944
3.8908684375 2.3521134375 -5.7175425368
4.515618125 2.8428778125 -4.008410864
5.627114375 2.67357875 -4.103167696
2.7795334375 3.6415759375 -5.705155244
3.3485846875 3.59571375 -4.877295784
3.391651875 4.130606875 -4.016661288
3.9072353125 3.5230034375 -5.712278844
4.428059375 3.3760778125 -4.867335696
4.4796459375 3.9610659375 -4.111366312
5.0272778125 3.3599125 -5.6337495728
5.592230625 3.2555165625 -4.856067456
5.55984625 3.8301578125 -4.073106104
6.1486909375 3.1276453125 -5.6419313512
2.2410659375 5.41063625 -4.039806512
2.783739375 4.8368146875 -5.6977648328
3.3245315625 4.6658090625 -4.871104728
3.3276221875 5.2547478125 -4.105563816
3.9152709375 4.6327259375 -5.6244072952
4.4986196875 4.566411875 -4.842429
5.0130609375 4.99181625 -6.4347886788
4.4146084375 5.122724375 -4.040233928
5.0233271875 4.40551125 -5.6712844688
5.610666875 4.409838125 -4.855847272
5.5978340625 4.935889375 -3.978129088
6.13497125 4.2833509375 -5.7148342736
2.8003078125 5.9308153125 -5.6055893344
3.377300625 5.847785 -4.830824008
3.3289928125 6.4101578125 -4.043381264
3.9054078125 5.70873375 -5.662025084
4.5012265625 5.6780290625 -4.86302268
5.023905 6.1749209375 -6.4620070478
4.5061446875 6.2145615625 -4.002517704
5.0343325 5.5849071875 -5.7138149512
5.5688628125 5.454684375 -4.869680008
5.602819375 6.0292046875 -4.083260472
6.1671540625 5.4174490625 -5.6442264456
2.751166875 3.100219375 -3.228985408
3.9178509375 2.929025625 -3.277231608
3.946755 2.376206875 -2.458263696
5.1063575 2.7890875 -3.239981656
6.156498125 2.600881875 -3.1972012
2.813140625 4.2379725 -3.265820896
2.7997165625 3.6852746875 -2.451891312
3.9682953125 4.0792084375 -3.218429528
3.8654446875 3.4852709375 -2.4663846
5.0119725 3.8746359375 -3.219724728
4.995551875 3.3195059375 -2.392894952
6.1189940625 3.71256625 -3.268579672
6.1964209375 3.1782375 -2.418889616
2.80677125 5.37623625 -3.210334528
2.7723846875 4.785389375 -2.430624128
3.854708125 5.187170625 -3.223869368
3.9133225 4.6257921875 -2.401857736
4.9919775 4.9966940625 -3.284031408
5.0825328125 4.4605109375 -2.441296576
6.2083265625 4.857844375 -3.258800912
6.131155 4.282020625 -2.474453696
2.7620109375 6.4512496875 -3.240966008
2.80870625 5.91975625 -2.381639664
3.906335 6.30084375 -3.279161456
3.96422375 5.75635625 -2.440117944
5.0840915625 6.1580165625 -3.220631368
5.00299625 5.559685 -2.478132064
6.1510425 5.976328125 -3.196216848