data.lammps (converted from cfg to data.lammps)
    
2298  atoms
1  atom types
0.0   13.4375  xlo xhi
0.0   13.4375  ylo yhi
0.0   12.952  zlo zhi
0.0  0.0 0.0 xy xz yz
    
    
    
Atoms
  
1 1 13.3952 13.1091 1.78907
2 1 0.578429 0.497857 12.8785
3 1 0.0823101 0.822594 1.78333
4 1 1.05682 13.2449 1.67059
5 1 1.6303 13.4274 0.851288
6 1 1.00297 13.2496 11.3228
7 1 1.19896 0.488046 2.42929
8 1 2.28745 1.12723 1.6082
9 1 2.14596 13.4177 1.68737
10 1 2.79872 0.0785984 0.938108
11 1 2.28842 0.538054 2.42158
12 1 2.81065 0.642471 0.0511047
13 1 3.32772 12.9847 2.45194
14 1 3.88699 0.991243 12.8107
15 1 3.3488 0.73046 2.39691
16 1 3.40197 0.202279 1.71514
17 1 12.9721 0.6201 0.80768
18 1 1.18316 2.13474 11.3357
19 1 0.0400052 1.31515 2.61633
20 1 0.49248 0.910671 0.796352
21 1 1.12602 0.968356 1.62498
22 1 0.635744 1.57204 12.9284
23 1 1.1458 2.04324 1.71
24 1 1.61977 1.52201 12.8775
25 1 1.62484 0.950053 0.859853
26 1 2.33045 1.6813 12.1818
27 1 2.38095 1.65742 2.38321
28 1 2.74324 1.778 3.24926
29 1 3.32927 1.41129 1.66627
30 1 3.9291 1.3884 1.00973
31 1 4.92337 2.09886 3.3545
32 1 5.43398 0.535066 1.71398
33 1 13.0405 1.8271 0.741753
34 1 0.520546 2.62711 0.061408
35 1 0.0566074 2.48306 2.33061
36 1 13.4126 1.83611 1.62112
37 1 2.14931 2.28513 1.69303
38 1 1.64005 2.69437 12.8967
39 1 1.17481 2.70965 2.46961
40 1 2.802 2.31856 0.928851
41 1 2.79593 1.25153 0.830801
42 1 2.83034 2.89691 12.9016
43 1 2.34079 2.76835 2.43075
44 1 3.37308 2.39478 1.67162
45 1 3.43933 1.8666 2.56898
46 1 3.99825 2.46346 0.865207
47 1 2.83185 2.99679 3.33757
48 1 3.85034 1.94752 12.9473
49 1 13.4033 3.05168 1.69996
50 1 0.601659 3.08357 0.855246
51 1 13.4002 3.61651 2.32369
52 1 1.09436 3.24387 1.55671
53 1 0.749999 2.02576 0.938964
54 1 1.59852 3.86123 0.0129609
55 1 0.966097 3.71675 2.45475
56 1 1.7739 3.14534 0.797912
57 1 2.26321 3.38672 1.58008
58 1 2.86983 3.9612 12.9191
59 1 2.03063 3.80675 2.31257
60 1 2.88955 3.34267 0.829564
61 1 3.28173 3.65981 1.71801
62 1 4.46953 4.26383 12.2193
63 1 3.56107 4.00339 2.55275
64 1 3.92935 3.57438 1.02891
65 1 0.231748 0.191445 2.4879
66 1 0.66708 0.307703 3.34821
67 1 1.74794 0.478129 3.29689
68 1 1.72152 13.2388 3.98884
69 1 2.75267 0.590911 3.22026
70 1 2.81338 0.205351 4.11871
71 1 3.84253 2.00673 3.39077
72 1 3.92609 0.83814 3.26858
73 1 0.601836 1.54987 3.38184
74 1 0.510063 0.90947 4.05008
75 1 1.18389 1.55966 2.51823
76 1 1.76335 1.09714 4.17824
77 1 1.73638 1.65185 3.27867
78 1 2.4558 1.20248 5.00678
79 1 4.00956 2.58078 4.01993
80 1 4.41903 2.06338 2.44819
81 1 0.557186 2.72662 3.19563
82 1 0.559977 2.14628 4.04381
83 1 1.75812 2.8181 3.27591
84 1 1.6195 2.24827 4.08154
85 1 2.78598 2.3641 4.07134
86 1 3.42195 2.59501 4.7706
87 1 3.3443 3.02743 2.41218
88 1 4.54898 2.65951 4.88963
89 1 0.462798 3.80081 3.32377
90 1 0.611778 3.25853 4.13065
91 1 1.70105 3.93387 3.26091
92 1 1.64275 3.34185 4.14711
93 1 2.75247 4.0848 3.01498
94 1 2.90343 3.57881 3.93298
95 1 4.53415 4.21881 2.47792
96 1 3.94896 3.19297 3.23268
97 1 4.48538 0.28547 1.71111
98 1 4.95868 0.373905 0.741796
99 1 4.53837 1.52182 1.77597
100 1 5.69659 1.49488 1.65612
101 1 5.64143 0.952404 2.53802
102 1 5.98482 0.859352 12.9205
103 1 5.09843 13.3461 3.18971
104 1 6.64959 0.199724 1.55867
105 1 6.73318 1.36709 1.61171
106 1 7.1833 0.839511 0.0799777
107 1 6.78588 0.84921 2.37648
108 1 7.93326 0.148498 1.6112
109 1 7.27353 0.291594 0.829194
110 1 7.91197 1.33946 11.4814
111 1 7.87673 0.781024 2.52539
112 1 8.35061 0.162338 0.604961
113 1 4.93987 0.977902 12.8875
114 1 4.44362 2.13882 12.2166
115 1 3.875 1.27826 4.14755
116 1 4.96908 1.47896 0.841662
117 1 6.18065 2.0133 0.166739
118 1 6.17835 2.53603 0.947
119 1 5.59441 1.97687 2.58034
120 1 5.01822 1.99879 0.0933579
121 1 6.18403 1.32368 0.76957
122 1 6.58253 2.02224 12.1702
123 1 6.75725 2.01499 2.31998
124 1 7.3456 1.49944 0.885882
125 1 7.86625 1.23076 1.66473
126 1 8.38053 1.64439 0.0752186
127 1 7.88738 1.83865 2.46488
128 1 7.89617 1.92817 12.1749
129 1 4.49892 2.70563 1.68322
130 1 5.04129 3.21327 0.0981469
131 1 4.55218 3.16898 2.5006
132 1 5.12654 2.59268 0.915614
133 1 5.55204 2.5028 1.72609
134 1 6.31472 3.09773 12.9195
135 1 5.67107 3.11819 2.39958
136 1 6.73893 2.578 1.68829
137 1 7.93268 2.98824 2.47764
138 1 8.06332 3.05778 12.1468
139 1 6.73952 3.12927 2.41758
140 1 7.31591 2.04968 12.8301
141 1 7.26047 2.41466 0.764858
142 1 8.46921 2.91039 0.0659276
143 1 7.82436 3.33328 1.56056
144 1 7.86673 2.31938 1.54741
145 1 4.66175 3.84166 1.58367
146 1 5.01289 4.35808 12.9392
147 1 4.45625 4.82886 1.64235
148 1 5.11633 3.72735 0.760969
149 1 5.76165 3.87973 1.75195
150 1 6.13124 4.22601 0.21188
151 1 5.60285 4.40706 2.52555
152 1 6.18837 3.57693 0.814828
153 1 7.2494 4.19207 0.0180903
154 1 6.64065 4.33901 12.2408
155 1 6.69894 3.7643 1.66545
156 1 7.29374 3.59159 0.745101
157 1 7.95454 3.88286 2.51205
158 1 8.35373 4.17275 12.9301
159 1 8.51727 4.01463 3.27206
160 1 8.48941 3.43444 0.857516
161 1 4.9935 0.966461 3.2649
162 1 4.53505 13.1192 2.50966
163 1 6.20639 0.84468 3.19325
164 1 5.99192 0.362344 4.11831
165 1 7.29076 0.598629 3.27746
166 1 7.19278 0.077836 4.01482
167 1 8.40345 0.605041 3.36709
168 1 8.24315 0.0716586 4.11989
169 1 5.1118 1.51169 3.98915
170 1 4.55026 1.53878 4.86361
171 1 6.31534 2.01052 3.21719
172 1 6.24208 1.34117 4.04794
173 1 7.35141 1.92843 3.10209
174 1 7.16783 1.31501 3.83864
175 1 8.42264 1.58427 3.48506
176 1 8.33775 1.08537 4.28053
177 1 5.16734 3.17857 3.2035
178 1 5.06838 2.74564 4.11067
179 1 6.31683 3.06973 3.29395
180 1 6.03771 2.53908 4.01232
181 1 7.36104 3.01425 3.27146
182 1 7.20126 2.34968 4.07557
183 1 8.49532 2.85795 3.32405
184 1 8.36202 2.26728 3.96524
185 1 5.00063 3.77673 4.00664
186 1 4.56422 3.76378 4.93757
187 1 6.80345 4.21399 2.60226
188 1 6.21245 3.65359 4.10678
189 1 7.37145 4.24548 3.40695
190 1 7.23257 3.46108 4.05225
191 1 8.38431 5.00785 3.25008
192 1 7.89749 3.45227 4.78667
193 1 8.88278 0.0145977 1.77791
194 1 9.0185 0.584237 12.2553
195 1 8.96589 0.585927 2.46837
196 1 9.41106 13.3813 0.885935
197 1 10.1256 13.2588 1.4866
198 1 10.6299 0.383271 12.941
199 1 10.0876 0.289643 2.4053
200 1 10.756 13.2894 0.832518
201 1 11.2821 12.8832 1.63847
202 1 11.2739 0.231149 12.061
203 1 11.2995 0.235182 2.32617
204 1 11.9114 13.1407 0.960735
205 1 12.4126 12.9761 1.78168
206 1 11.6292 0.17904 0.0914387
207 1 12.3573 0.196542 2.4809
208 1 12.9828 13.0874 0.819467
209 1 8.44402 1.14108 0.837136
210 1 9.99677 2.12702 1.64437
211 1 8.92696 1.1401 1.68556
212 1 9.60339 0.420776 0.125133
213 1 9.56394 1.04411 0.854412
214 1 9.91968 2.6166 12.0781
215 1 10.1498 1.49764 2.38186
216 1 10.6533 0.954611 0.889201
217 1 11.227 0.753472 1.60129
218 1 11.8353 1.77386 0.868478
219 1 11.315 1.29308 2.4719
220 1 11.9172 0.7202 0.982006
221 1 12.5113 0.795378 1.71225
222 1 12.2585 0.105883 12.1753
223 1 12.2812 1.41478 2.27413
224 1 0.540331 13.2692 0.821538
225 1 8.90612 2.21541 1.50304
226 1 8.95001 2.49419 12.0699
227 1 9.53266 2.61204 3.16744
228 1 10.1652 2.57277 2.39217
229 1 10.0661 0.95446 1.69283
230 1 10.1008 2.05218 11.2877
231 1 10.2064 3.13411 1.57224
232 1 10.7141 1.96972 0.854989
233 1 11.266 1.94648 1.76476
234 1 12.3775 2.40783 12.1482
235 1 11.2526 2.49009 2.43985
236 1 11.7801 2.25027 12.8963
237 1 12.3667 2.03804 1.63518
238 1 11.6829 3.58431 12.9242
239 1 12.3996 2.42895 2.52959
240 1 12.8169 1.30207 0.0259216
241 1 8.92273 2.6011 2.40906
242 1 9.48712 3.7527 12.8762
243 1 9.08462 3.20624 1.66655
244 1 9.67692 2.76077 0.123345
245 1 10.6768 2.94863 0.690195
246 1 10.5945 3.70616 0.059503
247 1 10.1043 4.238 1.54207
248 1 10.0825 3.17445 11.3391
249 1 11.3278 3.44699 2.47096
250 1 12.2994 3.55931 12.0381
251 1 11.2333 4.16585 1.54587
252 1 11.7905 4.06818 0.793658
253 1 12.2442 3.02493 1.44485
254 1 12.9591 3.02832 0.831556
255 1 12.3133 3.47225 2.42226
256 1 12.8821 2.52304 0.106502
257 1 9.45968 0.384018 3.33439
258 1 9.49476 13.3635 4.19849
259 1 10.6313 0.342072 3.10672
260 1 10.5498 13.2341 3.78184
261 1 11.7365 0.159574 3.18939
262 1 11.6957 13.0935 4.0558
263 1 13.0175 0.222731 3.23437
264 1 12.8122 13.1519 4.15473
265 1 8.96011 1.69632 2.5754
266 1 9.63821 1.03239 4.13709
267 1 10.7842 1.441 3.16433
268 1 10.6444 0.777509 3.98069
269 1 11.9486 1.26456 3.25103
270 1 11.7234 0.80622 3.96241
271 1 12.899 1.33116 3.20944
272 1 12.849 0.756254 4.09467
273 1 9.53702 2.16466 4.03501
274 1 9.60379 1.49833 3.22344
275 1 10.6557 2.54779 3.2804
276 1 10.5793 1.89438 4.01467
277 1 11.8323 2.37752 3.2319
278 1 11.7588 1.92417 4.092
279 1 12.9697 2.4891 3.36249
280 1 12.8818 1.99089 4.13639
281 1 10.1981 3.74144 2.46556
282 1 9.46118 3.71426 3.24777
283 1 12.9578 3.54405 3.2377
284 1 10.6763 3.103 4.10362
285 1 10.6717 3.72427 3.20995
286 1 11.6958 3.0774 4.08361
287 1 11.818 3.6733 3.33508
288 1 12.8572 3.08048 4.19125
289 1 0.0289008 4.23898 1.51935
290 1 0.529413 4.71781 0.0214716
291 1 13.4333 4.70208 2.38585
292 1 0.553246 4.15074 0.803401
293 1 1.21157 4.31873 1.56316
294 1 1.60667 5.13849 0.102355
295 1 1.11447 4.86257 2.39288
296 1 1.73357 4.38639 0.764636
297 1 2.36809 4.54462 1.69338
298 1 2.75283 5.10004 0.0107438
299 1 2.25437 5.04734 2.43406
300 1 2.74873 4.54827 0.786123
301 1 3.41994 4.60877 1.68287
302 1 4.044 5.46302 0.0415535
303 1 3.36599 5.09318 2.44689
304 1 3.92233 4.07375 0.120654
305 1 0.0111893 5.3584 1.469
306 1 0.583264 6.01605 12.8641
307 1 13.3442 5.69164 2.36084
308 1 0.589515 5.37176 0.681074
309 1 1.09725 5.32513 1.63467
310 1 1.62557 6.13184 12.9247
311 1 1.10961 5.94975 2.35387
312 1 1.66352 5.59882 0.93834
313 1 2.24666 5.63981 1.69608
314 1 2.82756 6.21623 0.142732
315 1 2.1738 6.26145 2.4152
316 1 2.82784 5.70744 0.893603
317 1 3.35928 5.76673 1.72087
318 1 4.01084 6.47776 0.0882608
319 1 3.33637 6.3591 2.45437
320 1 3.87575 5.89744 0.970537
321 1 13.3147 6.47979 1.67455
322 1 0.622163 7.10936 12.8939
323 1 13.3639 6.94708 2.41028
324 1 0.454478 6.41849 0.84399
325 1 1.03737 6.50743 1.54293
326 1 1.78656 7.09696 12.9456
327 1 1.16274 7.13988 2.43505
328 1 1.57453 6.66058 0.880957
329 1 2.16763 6.80026 1.56841
330 1 2.81642 7.42411 0.0103052
331 1 2.19261 7.36726 2.40261
332 1 2.77144 6.82516 0.798022
333 1 3.24917 6.94801 1.57634
334 1 3.82141 7.63548 0.174869
335 1 3.26612 7.42352 2.50461
336 1 3.90242 6.93547 0.846391
337 1 13.3552 7.62256 1.60294
338 1 0.343981 8.23578 12.8521
339 1 0.00493518 8.13487 2.45627
340 1 0.494196 7.46985 0.792015
341 1 0.982316 7.63441 1.70973
342 1 1.66577 8.29762 12.8032
343 1 1.19464 8.40455 2.35325
344 1 1.54731 7.78731 0.654762
345 1 1.95844 7.96731 1.59627
346 1 2.78135 8.58171 12.9084
347 1 2.29922 8.43321 2.34381
348 1 2.66041 8.02721 0.764737
349 1 3.22539 8.02463 1.49357
350 1 3.95044 8.56271 0.0129537
351 1 2.82966 9.62551 3.29077
352 1 3.94627 8.1401 1.0213
353 1 0.451741 4.85075 3.22794
354 1 0.696578 4.36969 4.08419
355 1 1.55101 4.92828 3.23778
356 1 1.87831 4.4643 4.21591
357 1 2.64923 5.27325 3.2256
358 1 2.77308 4.64243 3.89854
359 1 3.93197 5.23506 3.16231
360 1 3.81453 4.63919 3.84799
361 1 0.425463 5.86965 3.10066
362 1 0.502292 5.46886 3.97323
363 1 1.61348 6.09251 3.16517
364 1 1.66802 5.55764 3.97019
365 1 2.77924 6.28237 3.29653
366 1 2.74714 5.74664 4.08775
367 1 3.856 6.37363 3.25867
368 1 3.95964 5.7772 3.98261
369 1 0.543024 7.09875 3.20993
370 1 0.575374 6.46514 3.88693
371 1 1.64608 7.28585 3.30163
372 1 1.71125 6.55785 4.00815
373 1 2.68446 7.27474 3.21219
374 1 2.76028 6.85939 4.25574
375 1 4.99682 7.73977 3.26877
376 1 3.41561 6.85464 4.901
377 1 0.526935 8.20045 3.11861
378 1 0.529241 7.71386 3.99593
379 1 1.78721 8.37102 3.16138
380 1 1.71895 7.8128 3.97588
381 1 3.89485 8.6831 3.28902
382 1 2.88246 7.88369 3.94826
383 1 3.91162 7.51675 3.32148
384 1 3.91188 8.09902 4.12335
385 1 3.93205 4.82486 0.735662
386 1 5.12686 5.47459 0.103622
387 1 4.61993 5.37133 2.47175
388 1 5.03944 4.7965 0.820517
389 1 5.73613 5.44424 2.42307
390 1 6.16525 4.83793 0.763703
391 1 6.17773 5.50356 3.3982
392 1 5.62166 4.95164 1.63158
393 1 6.75824 4.77252 1.66912
394 1 6.74033 5.3216 12.1182
395 1 6.73729 5.29108 2.45824
396 1 7.32922 4.79321 0.886303
397 1 7.73917 4.34636 1.69349
398 1 8.42624 5.0819 0.00480214
399 1 7.876 5.12614 2.42109
400 1 8.44934 4.54679 0.905237
401 1 4.47537 5.87854 1.64496
402 1 5.0994 6.59607 0.0626602
403 1 4.53646 6.47248 2.50762
404 1 5.09735 6.05001 0.887529
405 1 5.71211 6.03547 1.53183
406 1 6.10818 6.65073 0.0534538
407 1 6.25792 6.56374 3.21193
408 1 6.35141 5.98658 0.905676
409 1 6.93478 5.83818 1.58846
410 1 7.49 5.94703 0.76198
411 1 6.68946 6.38076 2.3236
412 1 7.22216 5.27441 0.0635276
413 1 7.91918 5.61311 1.77093
414 1 8.45991 6.09248 12.9247
415 1 7.84176 6.39491 2.41626
416 1 8.43037 5.57789 0.945908
417 1 4.43002 7.04542 1.74242
418 1 5.0522 7.73605 0.189533
419 1 4.26861 7.67731 2.46034
420 1 5.02671 7.1306 0.851128
421 1 5.55825 6.47118 2.51998
422 1 6.16177 7.73913 0.0223688
423 1 5.48697 7.13377 1.63725
424 1 6.2052 7.07629 0.872074
425 1 6.65574 7.09405 1.77273
426 1 7.34034 7.46468 0.0551666
427 1 6.74435 7.65428 2.34473
428 1 7.32005 6.99328 0.897853
429 1 7.84977 6.8324 1.5445
430 1 8.42082 6.74798 0.740278
431 1 7.81512 7.45101 2.39041
432 1 9.01406 6.6897 1.67872
433 1 4.4858 8.287 1.68934
434 1 5.09089 8.95912 0.0289806
435 1 4.4075 8.87425 2.39962
436 1 5.05321 8.3125 0.882657
437 1 5.46183 7.61214 2.40304
438 1 6.17137 8.93575 0.0750164
439 1 5.66102 8.20418 1.68209
440 1 6.18963 8.24188 0.691203
441 1 6.66066 8.30382 1.67665
442 1 7.18983 8.65367 0.00098563
443 1 6.59979 8.755 2.55068
444 1 7.24043 8.0369 0.821869
445 1 7.80123 8.00172 1.62206
446 1 8.29491 7.88181 0.642104
447 1 7.84847 9.06255 1.67183
448 1 8.3587 7.2862 0.00964091
449 1 5.13784 5.29654 3.34905
450 1 4.9706 4.27198 3.27649
451 1 6.17989 6.03442 4.08084
452 1 6.1677 4.14598 3.13067
453 1 7.27164 5.40607 3.24349
454 1 7.21807 4.65521 4.12559
455 1 8.52875 5.6848 4.16123
456 1 8.36725 3.46925 4.00323
457 1 4.9895 6.00109 3.8981
458 1 4.59425 5.27977 5.80387
459 1 6.10748 7.24287 4.07043
460 1 6.11887 7.60323 3.05147
461 1 7.26122 6.43048 3.18246
462 1 8.35548 6.21475 6.46148
463 1 8.39763 6.09002 3.09597
464 1 7.78064 6.31216 5.6289
465 1 5.14203 8.2332 4.11032
466 1 5.12912 6.58079 3.23979
467 1 6.14408 8.61995 3.23369
468 1 5.13447 7.1201 4.09045
469 1 6.22456 8.21476 3.99583
470 1 7.29422 7.57828 3.26375
471 1 8.41263 7.28106 3.28885
472 1 8.46224 6.70248 3.96801
473 1 5.02356 8.77075 3.20413
474 1 4.49244 8.14342 4.80083
475 1 5.68671 8.33551 4.90661
476 1 6.69076 8.15029 4.94906
477 1 7.35158 8.54153 3.26203
478 1 6.81 9.21451 4.77543
479 1 7.7609 8.5943 2.44369
480 1 8.48989 7.86419 4.00669
481 1 9.09795 3.85491 2.335
482 1 9.60467 4.8052 12.9057
483 1 9.54573 4.40759 0.807201
484 1 9.61544 4.79943 3.24498
485 1 11.2014 3.06476 1.51484
486 1 10.1408 4.93495 12.0645
487 1 10.0884 5.28974 1.58001
488 1 10.6685 4.78423 12.922
489 1 10.7107 4.29957 0.736798
490 1 12.3752 4.69987 12.0826
491 1 11.2148 4.57959 2.41578
492 1 11.8421 4.6314 12.8329
493 1 12.4063 4.14368 1.50799
494 1 12.9269 4.82391 0.0103549
495 1 12.3104 4.54873 2.33483
496 1 12.8576 4.05446 0.649035
497 1 9.1412 5.59038 1.67657
498 1 9.50851 5.98685 12.9352
499 1 9.73025 6.08865 3.30821
500 1 8.96934 4.44484 1.69171
501 1 9.47442 5.53161 0.725833
502 1 10.7172 5.80321 12.9051
503 1 10.1632 5.91859 2.54271
504 1 10.6229 5.41783 0.797788
505 1 11.2671 5.29354 1.59417
506 1 11.2492 5.9792 12.0709
507 1 11.0512 5.79492 2.45556
508 1 11.6978 5.09762 0.768612
509 1 12.3761 5.26372 1.63036
510 1 12.9668 5.94036 12.9188
511 1 12.2189 5.77694 2.4599
512 1 12.7134 5.28254 0.7733
513 1 9.01387 6.14639 2.55976
514 1 9.50872 7.21906 12.8995
515 1 8.83627 7.3238 2.42143
516 1 9.45221 6.74697 0.739772
517 1 9.95309 6.37534 1.628
518 1 10.5673 6.918 0.0433452
519 1 10.0386 7.14993 2.38431
520 1 10.5345 6.43842 0.821159
521 1 11.018 6.46724 1.59819
522 1 11.649 7.0069 12.903
523 1 11.2277 6.94293 2.41587
524 1 12.8254 6.4371 0.831166
525 1 12.1135 6.32295 1.60747
526 1 12.2563 6.81271 12.1014
527 1 12.1978 6.86936 2.34009
528 1 12.8537 6.94774 12.8007
529 1 8.77117 7.92692 1.55982
530 1 10.1931 8.25089 12.2529
531 1 8.44574 8.4733 3.19203
532 1 9.41834 7.86322 0.79552
533 1 9.91517 7.54357 1.55468
534 1 10.6309 8.06582 0.119596
535 1 10.1872 8.19536 2.27779
536 1 10.6441 7.64932 0.870451
537 1 11.0864 7.38571 1.60044
538 1 11.748 7.5822 0.834912
539 1 11.188 8.14794 2.37765
540 1 11.7464 6.3077 0.712602
541 1 12.2704 7.45311 1.54901
542 1 12.763 8.04986 0.0704796
543 1 12.8423 8.09083 3.23593
544 1 12.9164 7.39785 0.709943
545 1 9.03894 5.05028 2.46901
546 1 9.69243 3.20951 4.10918
547 1 10.1009 4.76875 2.47392
548 1 10.6284 4.19469 3.97114
549 1 11.868 4.75448 3.15971
550 1 11.7906 4.27458 4.06759
551 1 12.8795 4.61656 3.12511
552 1 12.8304 4.1094 3.99274
553 1 9.5026 6.66649 4.14724
554 1 9.47536 5.50176 4.00522
555 1 10.7363 4.9495 3.36823
556 1 10.6301 5.62897 3.9964
557 1 11.4857 5.77767 3.21546
558 1 11.7763 5.19162 4.19702
559 1 12.712 5.81042 3.25089
560 1 12.8976 5.23501 3.93287
561 1 9.67444 8.18317 3.29697
562 1 9.50202 7.08714 3.13774
563 1 10.6823 6.92847 3.14785
564 1 10.6294 6.52682 3.98072
565 1 11.8373 6.86299 3.3064
566 1 11.7903 6.25504 4.09527
567 1 12.8552 6.91371 3.22036
568 1 12.8923 6.35873 4.10068
569 1 9.00533 8.30885 2.45273
570 1 9.09625 7.82643 4.88546
571 1 10.7119 8.1632 3.28069
572 1 10.6607 7.51995 3.92611
573 1 12.2981 7.99801 2.50977
574 1 11.8285 8.6328 4.04507
575 1 13.0391 7.42705 3.99262
576 1 12.4253 7.51527 4.85321
577 1 0.0379413 8.6968 1.71222
578 1 0.161214 9.2753 12.1037
579 1 0.617215 9.37302 3.31565
580 1 0.623114 8.60886 0.770959
581 1 0.959519 9.00647 1.51805
582 1 1.58726 9.35855 0.0419027
583 1 1.16094 9.43118 2.46287
584 1 1.65824 8.78923 0.7943
585 1 2.0926 9.15225 1.54776
586 1 2.8667 9.66 12.8725
587 1 2.36384 9.46266 2.47321
588 1 2.76 9.10817 0.768851
589 1 3.24076 9.03476 1.58596
590 1 3.95106 9.79437 0.057427
591 1 3.4018 8.56435 2.4381
592 1 3.80303 9.20727 0.701232
593 1 0.0211022 9.36751 2.56241
594 1 0.699978 9.93424 0.756247
595 1 0.0882379 10.3829 2.3226
596 1 0.533247 9.34127 0.0728542
597 1 1.17464 10.0168 1.62462
598 1 1.79904 10.6385 0.0111975
599 1 1.16934 10.4362 2.46806
600 1 1.86519 10.0931 0.828883
601 1 2.31253 10.1485 1.63465
602 1 2.99045 10.7755 12.9459
603 1 2.21794 10.5711 2.52227
604 1 2.81032 10.1375 0.692629
605 1 3.34916 10.1786 1.58692
606 1 4.05694 10.9046 12.8733
607 1 3.50879 10.7082 2.57675
608 1 3.88741 10.3644 0.833874
609 1 0.0203346 10.9511 1.61679
610 1 0.583216 12.0228 0.764667
611 1 13.3913 11.4916 2.43911
612 1 0.69864 10.4637 12.9381
613 1 0.695323 10.9453 0.906314
614 1 2.88108 11.8704 0.018991
615 1 0.986614 11.5981 2.37134
616 1 1.25141 11.0636 1.65089
617 1 2.2863 11.2619 1.63638
618 1 2.80955 12.5221 0.926007
619 1 2.10275 11.6628 2.44668
620 1 1.78825 11.2214 0.724031
621 1 3.29827 11.2909 1.75634
622 1 3.8505 11.983 0.0131512
623 1 3.23337 11.863 2.47619
624 1 3.92325 11.5038 0.871938
625 1 0.00256488 12.0311 1.48752
626 1 0.140622 12.5361 12.1751
627 1 13.2566 12.4217 2.48514
628 1 0.531729 12.7406 0.0800836
629 1 1.0535 12.187 1.67134
630 1 1.77575 0.459888 12.9408
631 1 1.02814 12.7223 2.5521
632 1 1.67689 12.3191 0.870719
633 1 2.17705 12.2961 1.69697
634 1 1.70379 12.7995 0.0932264
635 1 2.24065 12.8787 2.40396
636 1 2.74478 12.927 0.0113967
637 1 3.42179 12.4926 1.67342
638 1 3.82541 0.513605 0.780993
639 1 3.8481 13.267 3.19949
640 1 3.90965 12.5833 0.874204
641 1 0.591542 9.87682 4.11719
642 1 0.59198 8.71578 3.92865
643 1 1.7361 9.53172 3.24235
644 1 1.75745 8.9066 4.04627
645 1 2.79911 8.49579 3.25927
646 1 2.7807 9.14236 4.08628
647 1 3.46447 9.63137 2.43103
648 1 4.01642 9.80314 3.20171
649 1 0.429835 10.4319 3.31065
650 1 13.3128 9.68928 4.78518
651 1 1.65064 10.6707 3.3568
652 1 1.727 10.0795 4.11223
653 1 2.76215 10.816 3.24417
654 1 2.84116 10.308 3.95908
655 1 3.91797 10.965 3.42772
656 1 3.77785 10.2492 4.05442
657 1 0.718947 11.3641 3.20252
658 1 0.581664 11.0008 4.23905
659 1 1.84242 11.7783 3.32194
660 1 1.62184 11.2793 4.17539
661 1 2.82244 11.9481 3.31846
662 1 2.72034 11.3792 4.12026
663 1 3.84902 12.0358 3.2356
664 1 3.78783 11.5069 4.13561
665 1 0.559105 13.1318 4.02899
666 1 0.402393 12.6012 3.3187
667 1 1.62219 12.7453 3.16087
668 1 1.48956 12.2614 4.20522
669 1 2.73519 12.9967 3.29075
670 1 2.77091 12.5833 4.08019
671 1 3.86031 0.142511 4.1266
672 1 3.88479 12.5821 3.99201
673 1 4.2929 9.40992 1.60166
674 1 5.0375 10.0392 0.0264155
675 1 4.60921 10.0047 2.41337
676 1 4.90199 9.41403 0.853864
677 1 5.54356 9.25962 1.56015
678 1 6.19415 11.1243 0.0629979
679 1 5.58553 9.91378 2.35172
680 1 6.1932 9.32331 0.965223
681 1 6.82192 9.25951 1.61637
682 1 7.40734 9.86102 0.139525
683 1 6.64599 9.86251 2.47352
684 1 7.3707 9.17863 0.791542
685 1 8.41288 9.06054 0.818209
686 1 8.54484 9.54824 0.0498831
687 1 7.68813 10.1805 1.66953
688 1 8.37375 8.47511 12.9075
689 1 4.42756 10.5214 1.58048
690 1 5.10778 11.1138 0.00489316
691 1 4.55461 11.0511 2.37931
692 1 5.08593 10.5062 0.901802
693 1 5.62874 10.4419 1.60966
694 1 5.59516 11.1838 12.0829
695 1 5.62388 11.0987 2.51734
696 1 6.19564 9.99765 0.011284
697 1 6.20159 10.395 0.818735
698 1 7.36762 10.9857 12.8914
699 1 6.64366 10.9461 2.73343
700 1 6.71864 10.5604 1.69433
701 1 7.3104 10.4237 0.80556
702 1 8.49093 10.6748 0.093014
703 1 7.77627 10.781 2.44248
704 1 8.48226 10.1903 0.919418
705 1 4.33541 11.6483 1.69564
706 1 4.9588 12.2045 12.9377
707 1 4.43092 12.1365 2.52415
708 1 5.01364 11.6474 0.784562
709 1 5.48421 11.4927 1.62066
710 1 6.1644 12.2873 12.8992
711 1 5.578 12.5709 1.65517
712 1 6.08004 11.6731 0.765581
713 1 6.52595 11.4498 1.7047
714 1 7.20257 12.0884 0.0170666
715 1 6.65066 12.0104 2.45521
716 1 7.2543 11.4297 0.889467
717 1 7.75467 11.4055 1.65685
718 1 8.31647 11.7845 0.000828554
719 1 7.78035 11.9423 2.40703
720 1 8.33958 11.3382 0.838836
721 1 4.53006 12.7883 1.58644
722 1 5.59555 13.3092 12.1257
723 1 4.40488 0.866338 2.41643
724 1 5.00816 13.3622 12.8177
725 1 5.0591 12.7892 0.73375
726 1 6.00865 0.323766 0.880397
727 1 5.68991 13.2413 2.27107
728 1 6.1474 12.7414 0.856091
729 1 6.69365 12.4084 1.53782
730 1 7.17146 13.2564 12.9171
731 1 6.78252 13.1063 2.34702
732 1 7.32454 12.5758 0.786404
733 1 7.90312 12.4493 1.61903
734 1 8.29334 12.9386 12.889
735 1 7.77865 13.0999 2.4361
736 1 8.4946 12.4237 0.744038
737 1 5.13317 9.89942 3.3001
738 1 4.98177 9.22092 4.1077
739 1 6.14192 9.79422 3.33944
740 1 6.13192 9.25318 4.11805
741 1 7.92662 9.73547 2.51691
742 1 7.39562 9.13839 4.13094
743 1 8.4303 9.51571 3.24714
744 1 9.09438 8.96871 4.90712
745 1 4.91822 10.977 3.24607
746 1 5.07635 10.4239 4.06005
747 1 5.97797 10.8964 3.35031
748 1 6.24211 10.3852 4.15903
749 1 7.29324 10.8597 3.28406
750 1 7.27876 10.2657 3.97465
751 1 8.5103 10.6506 3.26683
752 1 8.2804 10.106 3.99416
753 1 5.65848 12.1154 2.54657
754 1 5.10689 12.1535 3.30593
755 1 6.15294 12.1937 3.35028
756 1 6.20841 11.5266 4.10247
757 1 7.2397 11.8885 3.29659
758 1 7.1987 11.3465 4.18482
759 1 8.35064 11.724 3.16846
760 1 8.44356 11.3067 4.07217
761 1 4.9038 0.530807 4.13289
762 1 4.92957 12.8073 4.00552
763 1 6.09604 13.2561 3.23923
764 1 6.13414 12.7046 4.18146
765 1 7.12298 12.966 3.28261
766 1 7.28601 12.3718 4.10892
767 1 8.248 12.8713 3.17757
768 1 8.3845 12.4685 3.96219
769 1 8.95518 8.91819 1.6696
770 1 9.57984 8.98301 0.792247
771 1 8.98025 9.47064 2.43093
772 1 9.61549 9.46672 12.9459
773 1 10.069 8.67383 1.56547
774 1 10.091 9.4055 12.0373
775 1 9.99789 9.30331 2.40093
776 1 10.6571 8.70575 0.894413
777 1 11.3286 8.60159 1.64295
778 1 11.6243 9.03931 12.8206
779 1 11.07 9.31227 2.31114
780 1 11.9014 8.72164 0.889284
781 1 12.4269 8.51796 1.74283
782 1 12.9635 9.21008 0.0498048
783 1 12.238 9.20564 2.31654
784 1 12.904 8.52322 0.894973
785 1 8.90529 9.96491 1.65454
786 1 9.57907 10.5872 12.9338
787 1 8.91054 10.6607 2.32363
788 1 9.59003 9.96475 0.852045
789 1 10.025 9.91936 1.54397
790 1 11.1971 9.93305 1.60061
791 1 10.0083 10.5294 2.30565
792 1 10.5579 9.13403 12.9447
793 1 11.8574 9.62735 0.71051
794 1 11.7381 10.1933 12.9219
795 1 11.6368 10.2171 3.10474
796 1 12.9455 9.68055 0.970067
797 1 12.2346 9.82189 1.6673
798 1 12.9685 10.3013 0.0759841
799 1 12.3234 10.4161 2.45251
800 1 0.0365687 9.7527 1.58481
801 1 8.91713 11.2872 1.64932
802 1 9.40698 11.6433 12.9406
803 1 8.97208 11.8584 2.48625
804 1 9.439 11.1551 0.773047
805 1 10.0442 11.106 1.53015
806 1 10.6452 11.4847 0.0131727
807 1 10.1075 11.5067 2.36261
808 1 10.8152 9.7554 0.777888
809 1 10.6603 10.9379 0.78937
810 1 11.9083 10.8876 0.74448
811 1 11.2456 11.3991 2.4023
812 1 11.2735 10.8637 1.54249
813 1 12.4025 10.8605 1.68926
814 1 13.0227 11.5306 0.00254544
815 1 12.1641 11.4037 2.55551
816 1 12.9576 10.8742 0.758464
817 1 8.84158 12.3535 1.6513
818 1 9.47993 12.8123 12.921
819 1 8.95745 12.8292 2.52555
820 1 9.51603 12.2199 0.77193
821 1 9.9887 12.1604 1.67771
822 1 10.5678 12.6592 0.172162
823 1 10.0528 12.7533 2.4533
824 1 10.582 12.0686 0.849202
825 1 11.1906 11.9579 1.48216
826 1 13.3833 12.1282 11.3979
827 1 11.0409 12.5229 2.51745
828 1 11.7455 11.8889 0.624855
829 1 12.2417 11.955 1.54406
830 1 11.7722 12.6672 0.168348
831 1 12.2694 12.4029 2.48175
832 1 12.8244 12.0742 0.764777
833 1 9.6775 9.434 3.24106
834 1 10.0603 8.86815 4.75017
835 1 10.6691 9.23339 3.21004
836 1 10.7415 8.6251 4.08645
837 1 11.0386 10.3799 2.45119
838 1 11.7093 7.98784 3.24884
839 1 12.7982 9.14455 3.21129
840 1 12.9825 8.70546 4.05399
841 1 9.42129 10.5236 3.25796
842 1 9.47908 9.95549 4.06119
843 1 10.4978 10.3761 3.2319
844 1 10.6659 9.73312 4.0152
845 1 11.6826 9.67804 3.97922
846 1 11.7618 9.1063 3.07395
847 1 12.8228 10.3408 3.19304
848 1 12.8338 9.77179 3.97461
849 1 9.63024 11.7039 3.14766
850 1 9.56179 11.2225 4.01534
851 1 10.7437 11.4638 3.26434
852 1 10.5367 10.8533 3.97576
853 1 11.7175 11.3915 3.38201
854 1 11.7351 10.7668 4.06378
855 1 12.9811 11.3816 3.39217
856 1 12.8058 10.8741 4.04802
857 1 9.47353 12.7547 3.31131
858 1 9.33994 12.2483 4.07395
859 1 10.5629 12.5005 3.32413
860 1 10.4965 12.0098 4.16503
861 1 11.6678 12.4884 3.24173
862 1 11.7261 12.0667 4.20472
863 1 12.6738 12.6512 3.34353
864 1 12.8364 12.0546 4.00717
865 1 0.104887 13.1228 4.83086
866 1 13.363 0.218858 5.63443
867 1 1.12211 13.4275 4.87526
868 1 1.05555 0.4511 5.71432
869 1 2.2435 12.7561 5.56195
870 1 2.13076 13.4328 4.94309
871 1 3.25983 0.161973 4.94689
872 1 3.47908 0.792485 5.61945
873 1 13.4344 0.758497 4.89397
874 1 0.130532 1.3721 5.6807
875 1 1.15714 1.03421 4.77757
876 1 1.3094 1.4613 5.76946
877 1 2.24789 0.586196 5.67772
878 1 2.2695 1.80224 5.79776
879 1 2.87889 1.1626 4.05044
880 1 3.35732 1.97699 5.65291
881 1 0.141309 1.7796 4.81313
882 1 13.4054 2.46066 5.70139
883 1 1.10074 2.04916 4.91484
884 1 1.14891 2.59748 5.65017
885 1 2.27544 2.24164 4.78582
886 1 2.30272 2.78348 5.54344
887 1 3.29633 2.96201 5.74252
888 1 3.91559 2.98667 6.53252
889 1 0.144729 2.99281 4.84919
890 1 0.0692077 3.65016 5.61289
891 1 1.12231 3.3027 5.05357
892 1 1.18391 3.89631 5.69253
893 1 2.39326 3.35585 4.69339
894 1 2.17839 3.89925 5.54224
895 1 3.5398 3.59033 4.74187
896 1 3.36824 4.05985 5.64595
897 1 0.0221243 13.3367 8.16323
898 1 0.639917 0.35952 6.55479
899 1 0.341765 13.1013 7.2898
900 1 1.08324 13.238 8.02256
901 1 1.71335 0.432173 6.51368
902 1 1.70397 13.3425 7.34476
903 1 2.22512 13.3547 8.0989
904 1 2.91302 0.161582 7.32565
905 1 3.38075 0.164062 8.09759
906 1 3.19301 0.790433 8.98303
907 1 3.82978 0.713983 6.47635
908 1 3.90683 0.093573 7.28091
909 1 13.3837 0.854578 7.99656
910 1 0.590424 1.48943 6.4582
911 1 0.645605 0.863644 7.32845
912 1 1.63056 0.988574 7.27362
913 1 1.69603 1.63553 6.57866
914 1 2.22198 1.03466 8.28998
915 1 2.64774 1.19304 7.3227
916 1 3.02611 1.66024 6.56142
917 1 2.75733 0.630791 6.44498
918 1 2.56916 0.777917 9.60787
919 1 3.86739 2.46196 7.29224
920 1 3.90486 1.20709 7.26122
921 1 0.0516193 1.99286 8.12684
922 1 0.494633 1.9657 7.22413
923 1 1.11905 2.08774 8.00765
924 1 1.18496 1.04941 8.20398
925 1 1.79753 2.76401 6.49328
926 1 1.67066 2.31403 7.29401
927 1 2.20147 2.17886 8.08942
928 1 2.73082 2.88847 6.60802
929 1 2.82036 2.27653 7.3721
930 1 3.46034 1.86257 8.89629
931 1 3.37698 3.20854 8.55915
932 1 3.364 2.44001 8.17301
933 1 0.216001 3.0826 8.02827
934 1 0.777319 3.62382 6.46757
935 1 0.674231 2.64415 6.35469
936 1 0.637413 3.02133 7.29707
937 1 1.7838 3.73131 6.53744
938 1 1.5677 3.33198 7.6379
939 1 2.33861 3.4258 8.00052
940 1 2.65099 3.98001 6.40299
941 1 3.01658 3.44949 7.41303
942 1 3.41483 4.1167 8.66747
943 1 4.6026 4.26471 5.69729
944 1 4.02995 1.84169 6.54992
945 1 4.42041 0.255881 4.91387
946 1 4.49748 0.870104 5.60403
947 1 5.55561 0.384049 4.87864
948 1 5.57859 1.01888 5.56625
949 1 6.72758 0.435773 4.78058
950 1 6.68173 0.857392 5.84322
951 1 7.72185 0.199316 4.98811
952 1 8.42988 0.589182 6.55852
953 1 3.44472 1.52299 4.88654
954 1 3.9327 3.79088 3.8379
955 1 5.63227 1.64795 4.83371
956 1 5.58301 2.18174 5.73578
957 1 6.66871 1.47979 5.04141
958 1 6.78607 3.07165 5.64018
959 1 7.68741 1.36952 4.79346
960 1 7.93957 1.7169 5.67379
961 1 4.41919 2.04908 5.61955
962 1 5.05907 3.79577 7.27829
963 1 5.63346 2.7545 4.96236
964 1 4.94245 3.0958 6.51259
965 1 6.6322 2.55401 4.92325
966 1 6.86835 4.28581 5.58779
967 1 7.82071 2.50544 4.85095
968 1 7.9165 2.85305 5.70773
969 1 5.58303 3.79449 4.90464
970 1 3.88512 4.13011 6.43111
971 1 5.00958 4.88817 4.21897
972 1 5.7466 4.91869 4.79956
973 1 6.70334 3.6161 4.90817
974 1 6.76938 4.94583 4.86469
975 1 7.92419 3.98021 5.77074
976 1 8.53107 4.08308 6.54476
977 1 4.42462 0.403341 8.2973
978 1 5.02984 0.976092 6.50593
979 1 4.84954 0.511161 7.32994
980 1 5.55944 0.495766 7.98768
981 1 6.03557 0.858221 6.49975
982 1 6.24244 0.366516 7.43278
983 1 6.63272 13.1489 9.01345
984 1 8.03206 0.783162 5.69676
985 1 6.86164 0.2244 8.21424
986 1 7.88916 0.143007 8.17837
987 1 8.37481 0.184802 7.35056
988 1 8.35671 13.0324 6.51641
989 1 4.4704 1.44848 8.13755
990 1 5.03597 2.07357 6.43229
991 1 5.09492 1.56434 7.39488
992 1 5.73636 1.55757 8.08887
993 1 6.22652 1.95732 6.39329