data.lammps (converted from cfg to data.lammps)
    
2298  atoms
1  atom types
0.0   13.4375  xlo xhi
0.0   13.4375  ylo yhi
0.0   12.952  zlo zhi
0.0  0.0 0.0 xy xz yz
    
    
    
Atoms
  
1 1 13.2587 0.68633 2.40366
2 1 0.513425 0.702066 0.0297713
3 1 13.333 1.15434 1.5523
4 1 0.606731 0.205136 0.857406
5 1 1.16045 0.240455 1.63211
6 1 2.24792 0.902016 12.1247
7 1 0.918788 0.888164 2.31192
8 1 1.66308 0.425058 0.774887
9 1 2.24754 0.460444 1.67091
10 1 2.74732 1.55933 0.686575
11 1 2.24944 0.934253 2.51058
12 1 2.75048 0.51336 0.836713
13 1 3.38137 0.477258 1.55735
14 1 3.81441 0.873725 0.0409884
15 1 3.38464 1.01197 2.46796
16 1 3.99255 0.309439 0.789335
17 1 12.7989 0.918602 0.691584
18 1 1.46432 1.9757 12.5892
19 1 0.137267 1.79975 2.40151
20 1 0.45779 1.23419 0.835539
21 1 1.16432 1.37851 1.46592
22 1 0.665378 1.86706 0.0244903
23 1 1.14363 1.85188 2.33238
24 1 1.69314 1.553 0.624409
25 1 2.17423 1.53424 1.62772
26 1 2.74464 2.17451 0.0340131
27 1 2.17795 2.09683 2.4028
28 1 3.27747 2.0756 2.50472
29 1 3.9148 1.50305 0.792344
30 1 3.83599 1.94103 12.8722
31 1 5.05837 1.90913 3.22742
32 1 4.9592 1.41707 0.783202
33 1 13.2824 2.31927 1.7303
34 1 0.512604 2.90961 12.9502
35 1 0.0891946 2.83015 2.50771
36 1 0.45404 2.2966 0.918491
37 1 1.73755 2.47065 0.766722
38 1 1.6806 3.03224 0.100347
39 1 1.24358 3.03618 2.26585
40 1 2.23561 2.63802 1.57851
41 1 2.84407 2.69312 0.893197
42 1 2.90878 3.20574 0.0523554
43 1 2.32435 3.16653 2.67652
44 1 3.48534 2.56607 1.57384
45 1 3.27163 1.52806 1.58832
46 1 4.0417 3.09472 0.108625
47 1 2.90554 3.30563 3.50684
48 1 3.98109 2.60572 0.767366
49 1 13.3504 3.27183 1.4359
50 1 0.515796 3.42628 0.809791
51 1 0.15048 3.74018 2.45681
52 1 1.13973 3.6423 1.59123
53 1 1.00741 2.52723 1.58223
54 1 1.63787 4.22382 12.9215
55 1 1.28845 4.17195 2.43263
56 1 1.57923 3.60641 0.820821
57 1 2.35119 3.57237 1.57754
58 1 2.88511 4.3347 0.00696119
59 1 2.30991 4.1855 2.31837
60 1 2.78011 3.94231 0.789178
61 1 3.48209 3.69121 1.64659
62 1 4.07327 4.2979 0.0672112
63 1 3.36785 4.15517 2.48026
64 1 3.95875 3.80713 0.782056
65 1 0.661484 0.678711 3.19829
66 1 0.503753 0.157848 3.98422
67 1 1.69142 0.857471 3.20052
68 1 1.51864 0.304456 4.02056
69 1 2.84815 0.866618 3.2809
70 1 2.65592 0.257633 4.04851
71 1 4.0543 0.954463 3.25563
72 1 3.85922 0.53402 4.00311
73 1 0.584632 1.75834 3.25238
74 1 0.488819 1.14358 4.01838
75 1 1.66536 2.01692 3.26697
76 1 1.77697 1.41537 4.02434
77 1 2.74685 2.00999 3.25109
78 1 2.75094 1.40125 4.08011
79 1 4.02616 2.73676 4.13677
80 1 4.31419 2.03566 2.43082
81 1 0.666918 2.81865 3.29248
82 1 0.51 2.31821 4.09325
83 1 1.66896 3.14331 3.28785
84 1 1.81271 2.57858 4.06958
85 1 2.86845 2.55037 4.01548
86 1 3.39966 2.57652 4.85217
87 1 3.23924 3.07111 2.38621
88 1 4.56731 2.59904 4.91164
89 1 0.711987 4.06865 3.12808
90 1 0.615654 3.57053 3.97216
91 1 1.73259 4.34402 3.38802
92 1 1.59218 3.62317 4.04764
93 1 2.73406 4.40847 3.18583
94 1 2.75269 3.81065 4.14549
95 1 3.89241 4.16029 3.23705
96 1 3.89002 3.12176 3.26427
97 1 4.46148 0.410482 1.61826
98 1 4.98713 0.871606 0.0477012
99 1 4.52416 0.932407 2.52254
100 1 5.01293 0.125528 0.80051
101 1 5.47743 0.226598 1.61066
102 1 6.2622 0.713366 12.93
103 1 5.63437 0.769583 2.45606
104 1 6.20907 0.107527 0.82121
105 1 6.64904 0.00511787 1.65828
106 1 7.38595 0.519523 0.0427101
107 1 6.7421 0.563855 2.34326
108 1 7.81874 13.3387 1.62612
109 1 7.24064 13.4225 0.824379
110 1 7.77255 0.384693 12.0924
111 1 7.74642 0.3737 2.35542
112 1 8.51886 13.1636 1.02172
113 1 4.42821 1.39109 1.62109
114 1 5.09397 2.04918 0.0870547
115 1 4.05696 2.11209 3.26849
116 1 5.49188 1.36467 1.77493
117 1 5.92754 1.18206 0.954451
118 1 6.16881 2.22929 0.71174
119 1 5.57729 2.09708 2.40454
120 1 6.2911 1.69253 0.0351386
121 1 6.68697 1.17655 1.59905
122 1 6.71612 1.74196 12.1186
123 1 6.715 1.7888 2.37169
124 1 7.14344 1.00536 0.863665
125 1 7.83185 0.911638 1.456
126 1 8.87539 1.27473 12.1548
127 1 7.78194 1.39993 2.40855
128 1 8.24952 1.44433 0.0487048
129 1 4.54221 2.53919 1.71286
130 1 5.10366 3.11286 0.0440141
131 1 4.45922 3.2287 2.46607
132 1 4.9687 2.49052 0.877931
133 1 5.65063 2.46704 1.5372
134 1 5.99702 3.00057 0.00548259
135 1 5.67599 3.26955 2.41886
136 1 6.66221 2.29202 1.56388
137 1 7.95539 2.69052 2.36318
138 1 7.96087 2.74423 12.2184
139 1 6.75603 2.88363 2.55552
140 1 7.31946 1.56649 12.8687
141 1 7.29792 2.07701 0.776269
142 1 8.47435 2.50972 0.09585
143 1 7.91656 3.2463 1.67283
144 1 7.71358 2.0902 1.76286
145 1 4.63539 3.6636 1.64477
146 1 5.12764 4.11855 12.8841
147 1 4.51473 4.32614 2.46918
148 1 5.12762 3.73525 0.78741
149 1 5.69788 3.57992 1.61657
150 1 6.46173 3.99791 12.9022
151 1 5.71379 4.1414 2.53296
152 1 6.22954 3.37529 0.814739
153 1 7.36923 3.80398 0.153292
154 1 6.92674 4.00345 12.1249
155 1 6.78504 3.30318 1.71496
156 1 7.30429 3.11835 0.837283
157 1 7.97815 3.72518 2.54359
158 1 8.38548 3.65218 0.110773
159 1 8.56178 3.63562 3.17068
160 1 8.48139 3.20505 0.970123
161 1 5.14189 0.844231 3.32309
162 1 5.12915 0.145414 3.99687
163 1 6.22101 0.718487 3.2419
164 1 6.1875 0.105922 4.02559
165 1 7.27344 0.480893 3.2866
166 1 7.38165 13.3566 4.13116
167 1 8.47084 0.187832 3.21163
168 1 8.57045 13.2653 4.06005
169 1 5.07728 1.48111 4.12886
170 1 4.46869 1.38648 4.80825
171 1 6.10549 1.76172 3.10137
172 1 6.25904 1.21364 4.06048
173 1 7.30801 1.64804 3.17815
174 1 7.4507 1.00317 3.94745
175 1 8.39019 1.44089 3.30635
176 1 8.43786 0.893098 4.10463
177 1 5.15706 2.92561 3.14679
178 1 5.12298 2.47562 4.1522
179 1 6.20163 2.87865 3.30982
180 1 6.17119 2.25698 4.00305
181 1 7.41015 2.61623 3.19501
182 1 7.21578 2.09546 4.04816
183 1 8.44206 2.52805 3.3551
184 1 8.35641 1.97991 4.21935
185 1 4.9577 3.48519 3.86093
186 1 4.63344 3.77414 4.97453
187 1 6.96889 3.95089 2.42881
188 1 6.08837 3.63167 4.00673
189 1 7.43395 3.90217 3.40325
190 1 7.31443 3.16027 3.99953
191 1 8.47957 4.84113 3.15253
192 1 7.95551 3.23085 4.73512
193 1 9.09093 13.1003 1.7572
194 1 8.94962 0.207894 12.146
195 1 8.8102 0.351329 2.41146
196 1 9.62525 13.2131 0.828349
197 1 10.1694 13.1012 1.5961
198 1 10.6348 0.0946462 0.0345777
199 1 9.9989 0.0718275 2.49399
200 1 10.6148 12.9433 0.729203
201 1 11.2141 13.1757 1.70148
202 1 11.1824 0.247712 12.126
203 1 11.038 0.449634 2.38108
204 1 11.64 13.2442 0.804105
205 1 12.3156 13.2052 1.6047
206 1 11.6618 0.325475 0.0135815
207 1 12.1552 0.431543 2.31024
208 1 12.8313 13.3433 0.786074
209 1 8.47883 0.884315 0.819744
210 1 9.49166 1.80697 0.87343
211 1 8.97457 0.932444 1.69891
212 1 9.46755 0.295171 12.8587
213 1 9.98783 0.605306 1.60974
214 1 9.95013 2.32226 12.2056
215 1 9.50914 1.20854 3.19069
216 1 10.6306 0.786427 0.675742
217 1 11.1087 0.737044 1.52385
218 1 11.6346 2.00678 0.806294
219 1 11.2204 1.39305 2.47291
220 1 11.7953 0.937122 0.708371
221 1 12.2637 1.04941 1.54675
222 1 12.8951 0.476171 12.8753
223 1 12.2777 1.61946 2.38632
224 1 13.3893 0.127757 1.56464
225 1 8.86453 2.05514 1.47778
226 1 9.00073 2.52918 12.1677
227 1 9.04423 2.47442 2.4089
228 1 10.1706 1.82376 1.62445
229 1 9.9831 1.28146 2.34357
230 1 10.0428 1.75542 11.2808
231 1 10.0814 2.38293 2.40011
232 1 10.556 2.03445 0.788114
233 1 11.2262 1.77366 1.62693
234 1 12.3311 2.64575 12.201
235 1 11.2189 2.54471 2.33755
236 1 11.2887 2.41038 12.1672
237 1 12.2553 2.10164 1.54458
238 1 11.8156 2.63734 0.0218337
239 1 12.401 2.62948 2.47243
240 1 12.8957 1.72654 12.8772
241 1 9.32587 3.00934 1.56873
242 1 9.68746 4.11627 0.744462
243 1 9.04966 3.50126 2.41482
244 1 9.76721 3.02883 0.742598
245 1 10.4694 2.88871 1.62256
246 1 10.6192 3.54277 12.7529
247 1 10.2267 3.52456 2.30626
248 1 10.2122 2.82139 11.3347
249 1 11.4551 3.09334 1.51954
250 1 12.3359 3.77807 12.0637
251 1 11.3275 4.19128 1.71586
252 1 11.7545 3.6507 0.0285124
253 1 12.3771 3.22531 1.39638
254 1 12.7423 2.99996 0.465655
255 1 12.3649 3.61318 2.47053
256 1 12.867 2.11932 0.639783
257 1 9.53322 0.137337 3.22716
258 1 9.64615 13.0163 4.18768
259 1 10.6896 0.225965 3.25945
260 1 10.6564 13.077 3.99783
261 1 11.7608 0.347562 3.20592
262 1 11.7812 13.1474 4.05695
263 1 12.899 0.430187 3.24018
264 1 12.804 13.3828 3.99986
265 1 8.84812 1.56253 2.44661
266 1 9.54992 0.71147 4.04769
267 1 10.5861 1.28547 3.19593
268 1 10.6611 0.825569 3.99801
269 1 11.8721 1.46474 3.32949
270 1 11.7564 0.871191 3.95759
271 1 12.8942 1.58421 3.09458
272 1 12.9123 1.04721 4.16602
273 1 9.55606 2.41676 3.26326
274 1 9.50612 1.87265 3.95623
275 1 10.6495 2.35086 3.16038
276 1 10.6114 1.84596 4.09691
277 1 11.7023 2.52347 3.14046
278 1 11.6935 2.09927 4.00291
279 1 12.95 2.7027 3.3703
280 1 12.8116 2.07558 4.01518
281 1 9.60588 3.50768 3.06707
282 1 9.69123 3.01107 4.04437
283 1 12.93 3.9551 3.09658
284 1 10.7931 2.82333 4.06282
285 1 11.3441 3.60887 2.43205
286 1 12.0085 3.03243 4.12152
287 1 11.8022 3.57777 3.31342
288 1 12.9766 3.4991 3.92607
289 1 0.194404 4.42426 1.66093
290 1 0.586877 5.26798 12.8989
291 1 13.4363 4.93437 2.30684
292 1 0.645669 4.7148 0.661966
293 1 1.21056 4.70433 1.39347
294 1 1.72996 5.27868 0.0840786
295 1 1.06617 5.20567 2.40521
296 1 1.90141 4.73138 0.804385
297 1 2.24057 4.90996 1.67467
298 1 2.8772 5.33514 0.0111671
299 1 2.13256 5.33328 2.45155
300 1 2.96216 4.99527 1.06836
301 1 3.42964 4.84446 1.76063
302 1 3.85539 5.42382 0.0360414
303 1 3.48554 5.38461 2.46843
304 1 3.96171 4.86724 0.891107
305 1 13.3989 5.59777 1.64923
306 1 0.529128 6.36501 0.017347
307 1 0.0401019 6.04869 2.49636
308 1 0.607048 5.75188 0.857775
309 1 1.22285 5.82633 1.7196
310 1 1.56904 6.35926 12.8594
311 1 1.02714 6.47908 2.48107
312 1 1.62607 5.95703 0.786908
313 1 2.41058 6.16597 1.67772
314 1 2.89665 6.59099 0.0725194
315 1 2.26543 6.52013 2.50966
316 1 2.70784 6.02484 0.77039
317 1 3.31667 6.10667 1.63906
318 1 4.10173 6.51568 12.8979
319 1 3.42774 6.58545 2.44917
320 1 3.86929 6.00457 0.879772
321 1 0.0746327 6.68917 1.54888
322 1 0.59172 7.44705 0.18862
323 1 13.3457 7.2727 2.42601
324 1 0.643456 6.92382 0.857403
325 1 1.16654 6.93988 1.63643
326 1 1.74064 7.56651 0.0305496
327 1 1.06464 7.4815 2.44942
328 1 1.67007 6.91187 0.79207
329 1 2.28274 7.19174 1.57789
330 1 2.73907 7.76075 0.0381008
331 1 2.34564 7.60642 2.45983
332 1 2.8253 7.23621 0.83274
333 1 3.39621 7.23166 1.65356
334 1 3.94271 7.53653 12.9312
335 1 3.40747 7.6187 2.43314
336 1 4.03001 6.9912 0.898629
337 1 0.109347 7.85638 1.69736
338 1 0.519244 8.52854 12.891
339 1 0.114091 8.54731 2.26836
340 1 0.417492 8.05339 0.846181
341 1 1.31884 8.00047 1.5972
342 1 1.68239 8.7315 12.9517
343 1 1.09539 8.63041 2.4199
344 1 1.63185 8.11746 0.761203
345 1 2.28779 8.32737 1.64551
346 1 2.72431 8.83663 12.9263
347 1 2.30433 8.76206 2.48364
348 1 2.73522 8.38147 0.851472
349 1 3.48397 8.34138 1.69056
350 1 3.81151 8.75742 0.161164
351 1 2.82574 9.99977 3.30345
352 1 3.84308 8.08065 0.74185
353 1 0.626036 5.13796 3.23695
354 1 0.555853 4.6633 3.97828
355 1 1.63087 5.42495 3.2522
356 1 1.73316 4.82425 4.0661
357 1 2.77376 5.43446 3.02879
358 1 2.77421 4.9079 4.19558
359 1 3.85003 5.34395 3.33118
360 1 3.79793 4.7521 4.03051
361 1 0.476814 6.21741 3.39455
362 1 0.56844 5.77671 4.22543
363 1 1.61238 6.59359 3.14363
364 1 1.79467 5.8933 4.05534
365 1 2.91485 6.45982 3.16139
366 1 2.7844 5.85171 4.09237
367 1 4.03492 6.58978 3.34086
368 1 3.88966 6.00804 4.0378
369 1 0.474479 7.41313 3.15098
370 1 0.552113 6.95444 3.93651
371 1 1.86695 7.69076 3.28338
372 1 1.6979 6.91417 3.97139
373 1 2.86584 7.66632 3.39981
374 1 2.84218 7.00501 3.97935
375 1 5.01459 7.61709 3.27752
376 1 3.35529 7.05283 4.82016
377 1 0.543118 8.65586 3.24713
378 1 0.638469 7.99756 4.07791
379 1 1.72575 8.75262 3.26394
380 1 1.54542 8.0709 3.9681
381 1 3.88926 8.8524 3.07438
382 1 2.79032 8.24936 4.111
383 1 3.94013 7.76986 3.14661
384 1 3.90666 8.33836 4.03443
385 1 4.62241 4.77617 1.7007
386 1 5.14541 5.25076 0.075449
387 1 4.52148 5.43086 2.49713
388 1 5.14472 4.72371 0.85113
389 1 5.5959 5.2844 2.49294
390 1 6.09413 4.52161 0.694695
391 1 6.10198 5.17668 3.22108
392 1 5.71694 4.7967 1.75739
393 1 6.60944 4.37741 1.52361
394 1 6.59087 4.99504 12.0606
395 1 6.77435 4.95563 2.38831
396 1 7.32516 4.36227 0.886094
397 1 7.92348 4.36318 1.63027
398 1 8.37496 4.86634 12.8599
399 1 7.88257 4.81065 2.38692
400 1 8.50059 4.32665 0.686975
401 1 4.54114 5.93778 1.62409
402 1 5.0504 6.48953 0.127817
403 1 4.44826 6.49026 2.56183
404 1 4.94484 5.75591 0.740459
405 1 5.61728 5.88673 1.61535
406 1 6.12589 6.21753 12.9238
407 1 6.30396 6.12184 3.20124
408 1 6.11127 5.68287 0.845228
409 1 6.76567 5.43978 1.62076
410 1 7.20222 5.41479 0.859721
411 1 6.75558 6.17421 2.26729
412 1 7.36163 5.09971 0.0339037
413 1 7.86231 5.48568 1.58088
414 1 8.42789 5.93487 0.020622
415 1 7.87626 6.0162 2.37976
416 1 8.41863 5.43235 0.81207
417 1 4.598 6.93106 1.75107
418 1 5.14854 7.63749 12.8411
419 1 4.56798 7.55616 2.34155
420 1 5.06692 7.07007 0.81125
421 1 5.65244 6.39909 2.50168
422 1 6.24361 7.3312 0.0873067
423 1 5.66628 6.88271 1.5362
424 1 6.27144 6.74478 0.725395
425 1 6.79866 6.64663 1.51535
426 1 7.40666 7.21185 12.9426
427 1 6.65979 7.25824 2.40204
428 1 7.37128 6.51079 0.866213
429 1 7.98458 6.52501 1.54178
430 1 8.56491 6.51989 0.740799
431 1 7.78678 7.08367 2.38202
432 1 9.08774 6.2697 1.67007
433 1 4.52799 8.17942 1.64018
434 1 5.0906 8.6994 12.9373
435 1 4.59721 8.65892 2.43457
436 1 4.95926 8.16485 0.786223
437 1 5.60569 7.41618 2.49704
438 1 6.20581 8.52503 0.00539228
439 1 5.64581 7.88103 1.66425
440 1 6.04683 7.99236 0.811031
441 1 6.68881 7.88358 1.58162
442 1 7.28373 8.33701 0.108428
443 1 6.72454 8.40887 2.41772
444 1 7.2419 7.67434 0.889679
445 1 7.96488 7.60846 1.65012
446 1 8.37473 7.60767 0.762717
447 1 7.90578 8.71949 1.69456
448 1 8.38192 7.06049 12.8895
449 1 5.03186 5.20569 3.40987
450 1 5.09855 4.16231 3.27983
451 1 6.17811 5.66861 4.02138
452 1 6.38733 4.03527 3.27642
453 1 7.2683 5.08089 3.20541
454 1 7.3924 4.48388 4.0715
455 1 8.46615 5.25848 4.06746
456 1 8.52655 3.14519 3.97388
457 1 5.08081 5.88554 4.0671
458 1 4.61289 5.27224 5.77452
459 1 6.1106 6.66423 4.12472
460 1 6.21193 7.27728 3.35146
461 1 7.32709 6.09947 3.13175
462 1 8.27495 6.02138 6.44625
463 1 8.378 5.81658 3.31446
464 1 7.75075 6.06527 5.55511
465 1 5.00759 8.1153 4.13724
466 1 5.11606 6.4023 3.22715
467 1 6.08364 8.43331 3.24857
468 1 5.11011 7.04331 4.04881
469 1 6.23653 7.88533 4.04005
470 1 7.25423 7.21994 3.24112
471 1 8.37468 7.11642 3.19136
472 1 8.33047 6.39863 3.93316
473 1 4.95454 8.58877 3.33662
474 1 4.38143 8.10284 4.89619
475 1 5.64904 7.96893 4.8293
476 1 6.84803 7.82952 4.87294
477 1 7.32986 8.3278 3.23101
478 1 6.65901 8.96703 4.81602
479 1 7.82265 8.18567 2.48343
480 1 8.46737 7.47333 4.12975
481 1 9.06582 4.10471 1.51908
482 1 9.45597 4.6761 12.8444
483 1 9.02972 4.52376 2.329
484 1 10.1355 4.07179 1.63676
485 1 10.9694 3.05222 0.659175
486 1 10.1334 4.64143 12.2335
487 1 10.081 4.66453 2.4001
488 1 10.6692 4.53196 0.0932409
489 1 10.726 4.03543 0.883456
490 1 12.144 4.94516 12.2556
491 1 11.2486 4.55707 2.67215
492 1 11.7043 4.79089 0.130261
493 1 12.4785 4.33112 1.69789
494 1 12.8393 4.95304 12.9189
495 1 12.3004 4.9006 2.34094
496 1 12.9127 4.35591 0.825584
497 1 9.01668 5.26449 1.57741
498 1 9.52962 5.71952 12.9285
499 1 9.53091 5.80594 3.23659
500 1 9.65447 5.17033 0.835304
501 1 10.1773 5.2543 1.71543
502 1 10.7143 5.79813 12.926
503 1 10.1125 5.79538 2.45192
504 1 10.7103 5.18378 0.821355
505 1 11.2565 5.2095 1.67023
506 1 11.1869 5.76083 12.0761
507 1 11.2272 5.8061 2.44614
508 1 11.7903 5.34198 0.822171
509 1 12.2816 5.46241 1.53911
510 1 12.7775 6.02474 0.08681
511 1 12.3349 5.90332 2.47953
512 1 12.942 5.45855 0.827555
513 1 8.9781 5.70754 2.46045
514 1 9.63188 6.84883 0.072647
515 1 8.96041 6.79209 2.49149
516 1 9.57787 6.25541 0.7659
517 1 10.1422 6.37333 1.55973
518 1 10.6215 6.85025 12.9047
519 1 10.2223 6.86646 2.43641
520 1 10.7257 6.20368 0.881176
521 1 11.2585 6.41009 1.57127
522 1 11.7019 7.15597 12.7967
523 1 11.2698 6.86687 2.38562
524 1 12.9364 6.7009 0.800109
525 1 12.4239 6.52896 1.6993
526 1 12.3194 6.99853 12.1501
527 1 12.255 7.09759 2.47122
528 1 12.8112 7.21316 12.9141
529 1 9.09775 7.36218 1.77718
530 1 10.0964 7.97031 12.0911
531 1 8.47435 8.2247 3.28077
532 1 9.38556 7.40975 0.800691
533 1 10.0487 7.51977 1.42855
534 1 10.5973 7.97216 0.0233481
535 1 10.1404 7.91975 2.41858
536 1 10.6492 7.37781 0.74609
537 1 11.1837 7.54121 1.71697
538 1 11.7932 7.52556 0.896193
539 1 11.2485 8.1026 2.45939
540 1 11.8746 6.51379 0.763015
541 1 12.3086 7.77749 1.74207
542 1 12.8009 8.24438 0.00520277
543 1 12.3837 8.27593 2.5438
544 1 12.8657 7.7036 0.92424
545 1 9.46556 4.61235 3.2633
546 1 9.64408 4.04991 4.00402
547 1 10.6174 4.7313 3.2201
548 1 10.6922 3.42916 3.2702
549 1 11.8924 4.74481 3.23124
550 1 11.8204 4.22064 4.09742
551 1 12.9856 4.98041 3.18643
552 1 12.9748 4.50674 4.10813
553 1 9.49179 6.34585 4.00366
554 1 9.60498 5.20774 3.98445
555 1 10.7606 5.85753 3.27263
556 1 10.7288 5.24415 4.04778
557 1 11.7702 5.92712 3.18789
558 1 11.831 5.3684 4.02989
559 1 12.8674 6.10921 3.25378
560 1 12.7972 5.57319 4.04355
561 1 9.54917 8.05055 3.25528
562 1 9.5037 6.94601 3.25017
563 1 10.6324 6.88519 3.30439
564 1 10.6012 6.29313 4.0918
565 1 11.7385 7.10111 3.34844
566 1 11.7842 6.50012 4.06447
567 1 12.8647 7.13903 3.30924
568 1 12.8543 6.69339 4.20773
569 1 9.02368 7.97727 2.35098
570 1 8.99825 7.52978 4.84038
571 1 10.685 8.03994 3.26271
572 1 10.6697 7.43223 3.98699
573 1 11.7763 8.21667 3.20664
574 1 11.9602 7.6771 4.02372
575 1 13.0873 8.2365 3.19912
576 1 12.9183 7.84585 4.12656
577 1 13.3391 9.08818 1.56024
578 1 0.423383 9.52724 0.0380414
579 1 13.4011 9.68035 2.45373
580 1 0.612556 9.00386 0.877595
581 1 1.07519 9.27397 1.62709
582 1 1.56621 9.91319 0.0151879
583 1 1.10558 9.69799 2.49547
584 1 1.6543 9.33178 0.699833
585 1 2.12436 9.41594 1.5721
586 1 2.83843 9.88222 0.0589499
587 1 2.33889 9.84111 2.55628
588 1 2.76331 9.38706 0.889648
589 1 3.2927 9.44877 1.65805
590 1 3.91145 9.81705 0.0495972
591 1 3.26679 8.82459 2.39576
592 1 3.90668 9.36379 0.779455
593 1 13.3837 10.1249 1.48947
594 1 0.559458 10.7561 0.145447
595 1 0.0485664 10.6844 2.54408
596 1 0.578513 10.1764 0.847888
597 1 1.20301 10.2918 1.78861
598 1 1.50575 11.1213 0.0725607
599 1 1.02125 10.9468 2.4266
600 1 1.6945 10.3865 0.80652
601 1 2.24347 10.4927 1.72675
602 1 2.56648 10.9304 12.9397
603 1 2.25898 11.0298 2.43728
604 1 2.86223 10.5453 0.909615
605 1 3.40138 10.4144 1.61458
606 1 3.80653 10.9915 12.9388
607 1 3.35252 11.119 2.42548
608 1 4.05181 10.4568 0.801722
609 1 13.4286 11.1671 1.67727
610 1 0.61291 11.9186 12.9439
611 1 13.4231 11.8335 2.38343
612 1 0.514355 11.3835 0.831037
613 1 1.03724 11.5165 1.54789
614 1 2.33412 12.0548 12.1132
615 1 1.05428 12.0456 2.43039
616 1 1.7442 11.4321 0.925622
617 1 2.25837 11.6431 1.66893
618 1 2.77679 12.8572 0.812366
619 1 2.14252 12.1335 2.49295
620 1 2.79773 11.6239 0.779418
621 1 3.33082 11.6153 1.6354
622 1 3.82648 12.2469 0.054906
623 1 3.3287 12.2567 2.48596
624 1 3.84615 11.5594 0.707709
625 1 0.0201459 12.4463 1.60822
626 1 0.457699 13.1127 12.8998
627 1 13.3785 13.0829 2.38542
628 1 0.39481 12.4313 0.693938
629 1 1.0085 12.5998 1.52667
630 1 1.64257 0.885977 12.8292
631 1 1.14936 13.0816 2.39473
632 1 1.59831 12.6561 0.822117
633 1 2.17387 12.6568 1.51871
634 1 1.63322 13.1935 0.117489
635 1 2.36309 13.2439 2.37489
636 1 2.90715 13.3277 0.0320611
637 1 3.29236 12.6801 1.63459
638 1 3.91923 13.2136 12.9099
639 1 3.42648 13.4267 2.39098
640 1 3.92661 12.6628 1.02745
641 1 0.556638 9.68388 3.18349
642 1 0.542741 9.08935 4.13388
643 1 1.67066 9.95398 3.219
644 1 1.62066 9.20904 4.03817
645 1 2.80235 8.86737 3.35335
646 1 2.78782 9.3826 4.10314
647 1 3.31584 10.0957 2.54077
648 1 3.94209 9.77743 3.23862
649 1 0.620475 10.8631 3.36428
650 1 0.543176 10.2455 4.00515
651 1 1.66153 10.9975 3.24622
652 1 1.63516 10.3068 4.12223
653 1 2.87944 11.0379 3.2843
654 1 2.6671 10.4954 4.1201
655 1 3.93622 10.9756 3.27937
656 1 3.88431 10.2716 4.10744
657 1 0.385002 11.984 3.33141
658 1 0.39452 11.392 4.11725
659 1 1.53799 12.03 3.25905
660 1 1.51619 11.4606 4.11811
661 1 2.74837 12.0937 3.23955
662 1 2.7087 11.6254 4.07855
663 1 3.93906 12.1158 3.14605
664 1 3.84705 11.6346 3.99273
665 1 0.56513 13.0955 3.09272
666 1 0.683564 12.5851 4.10497
667 1 1.79757 13.2094 3.21993
668 1 1.63909 12.6427 3.97053
669 1 2.91196 13.2427 3.25129
670 1 2.71947 12.6433 4.06207
671 1 3.95756 13.1894 3.29053
672 1 3.88221 12.7265 4.10704
673 1 4.43147 9.29808 1.62357
674 1 5.1274 9.78466 0.00473854
675 1 4.38929 9.76679 2.4112
676 1 5.05195 9.21927 0.827012
677 1 5.62032 9.10408 1.61576
678 1 6.15005 10.8061 12.9294
679 1 5.63559 9.68266 2.43472
680 1 6.17675 9.03032 0.871005
681 1 6.7594 8.96072 1.5698
682 1 7.27661 9.48983 0.0324041
683 1 6.7261 9.42618 2.35887
684 1 7.38674 8.90901 0.860576
685 1 8.45501 8.68824 0.930138
686 1 8.42944 9.27425 0.0804375
687 1 7.84133 9.85162 1.61737
688 1 8.3445 8.2427 12.899
689 1 4.67926 10.3621 1.70804
690 1 5.04508 11.0189 0.0447348
691 1 4.42903 10.8349 2.48647
692 1 5.02623 10.2907 0.760832
693 1 5.70687 10.2676 1.52239
694 1 5.58987 10.8848 12.1851
695 1 5.67063 10.7632 2.41715
696 1 6.2209 9.60898 0.0297395
697 1 6.17628 10.2294 0.762882
698 1 7.36817 10.5891 0.0109369
699 1 6.7739 10.5764 2.42004
700 1 6.82509 10.1452 1.65304
701 1 7.20341 10.0057 0.788551
702 1 8.47472 10.3091 0.0378969
703 1 7.81899 10.3713 2.45592
704 1 8.39007 9.78082 0.898713
705 1 4.43921 11.4837 1.55899
706 1 4.95094 12.1093 12.8975
707 1 4.45952 11.962 2.4315
708 1 5.01678 11.4489 0.862387
709 1 5.60291 11.4083 1.7556
710 1 6.15756 11.9358 0.0494334
711 1 5.58573 12.022 2.40564
712 1 6.09856 11.2801 0.917675
713 1 6.72163 11.3163 1.68017
714 1 7.30579 11.6337 0.185712
715 1 6.74835 11.7086 2.56503
716 1 7.2763 11.0225 0.887204
717 1 7.81585 11.0259 1.65007
718 1 8.37954 11.452 12.9055
719 1 7.88723 11.5616 2.45996
720 1 8.47358 10.9314 0.829522
721 1 4.50156 12.6335 1.77481
722 1 5.09472 13.1495 0.0639988
723 1 4.47934 13.2528 2.40771
724 1 5.02206 12.4521 0.894953
725 1 5.5957 12.604 1.67187
726 1 6.20792 13.0359 12.9203
727 1 5.66615 13.1801 2.51506
728 1 6.08599 12.4486 0.871548
729 1 6.73676 12.2809 1.53992
730 1 7.23107 12.7736 12.9206
731 1 6.77579 12.7659 2.38445
732 1 7.26953 12.2968 0.773196
733 1 7.8434 12.1867 1.57654
734 1 8.3635 12.6677 0.129092
735 1 7.79429 12.6923 2.43711
736 1 8.41046 11.986 0.773206
737 1 5.01803 9.80213 3.27991
738 1 5.01201 9.19495 3.99059
739 1 6.13032 9.59353 3.2055
740 1 6.07775 9.0107 4.04786
741 1 7.79824 9.29301 2.41967
742 1 7.17829 8.93704 4.00199
743 1 8.48778 9.21182 3.21897
744 1 8.98336 8.71454 4.83566
745 1 4.96639 10.918 3.24225
746 1 4.98839 10.3237 4.06201
747 1 6.10501 10.7309 3.20102
748 1 6.09619 10.1381 3.99361
749 1 7.11647 10.4271 3.31753
750 1 7.21055 9.97912 4.1454
751 1 8.34615 10.3701 3.1405
752 1 8.26998 9.83966 3.85328
753 1 5.13118 11.9924 3.17105
754 1 4.91216 11.3803 3.99503
755 1 6.11041 11.7678 3.30823
756 1 6.11543 11.2332 4.16469
757 1 7.32071 11.6549 3.22606
758 1 7.27326 10.9904 4.02402
759 1 8.37418 11.5389 3.37353
760 1 8.35593 10.9094 4.05697
761 1 5.06669 13.1338 3.1821
762 1 4.98946 12.487 3.9754
763 1 6.28133 12.9872 3.18225
764 1 6.22042 12.3759 3.90959
765 1 7.38384 12.9896 3.25001
766 1 7.26559 12.3041 3.89483
767 1 8.44168 12.5842 3.27257
768 1 8.40915 12.1732 4.20726
769 1 9.07117 8.57208 1.67543
770 1 9.518 8.45641 0.802734
771 1 8.92356 9.09011 2.35463
772 1 9.52172 9.00188 12.9325
773 1 10.155 8.59391 1.50336
774 1 10.0623 9.03404 12.1513
775 1 10.0462 9.057 2.44446
776 1 10.6237 8.58843 0.686214
777 1 11.2643 8.66599 1.68925
778 1 11.7015 9.35285 0.0675155
779 1 11.21 9.24818 2.40807
780 1 11.707 8.66666 0.881123
781 1 12.3229 8.86333 1.61181
782 1 12.8873 9.4448 0.0268588
783 1 12.3398 9.38924 2.44735
784 1 12.8879 8.83295 0.78252
785 1 8.96903 9.76177 1.59861
786 1 9.46535 10.2309 0.142841
787 1 8.97747 10.2817 2.45297
788 1 9.45352 9.5458 0.816731
789 1 10.0253 9.6335 1.57722
790 1 10.6863 9.70259 0.823883
791 1 10.1452 10.2197 2.3625
792 1 10.5472 9.27283 0.00538549
793 1 11.0478 9.72952 1.60218
794 1 11.6127 10.4366 12.8269
795 1 11.2831 10.4224 2.26221
796 1 11.7663 9.94865 0.802046
797 1 12.3646 9.97795 1.54278
798 1 12.9382 10.6789 0.0735411
799 1 12.3521 10.4763 2.42943
800 1 12.8064 10.0649 0.696363
801 1 8.98199 10.8882 1.71413
802 1 9.46755 11.3924 0.109192
803 1 8.96437 11.4982 2.39539
804 1 9.55366 10.7715 0.953591
805 1 10.195 10.8879 1.62013
806 1 10.694 11.4576 0.0680154
807 1 10.0607 11.3874 2.43669
808 1 10.4623 10.7804 0.736176
809 1 11.2128 10.8983 1.53739
810 1 11.725 11.4096 12.8602
811 1 11.1752 11.3636 2.52813
812 1 11.7874 10.9952 0.781016
813 1 12.4147 11.0786 1.62985
814 1 12.8474 11.8333 12.739
815 1 12.3303 11.6235 2.40273
816 1 12.8285 11.2993 0.72364
817 1 9.0736 11.99 1.51608
818 1 9.32498 12.594 0.0411626
819 1 8.95496 12.5166 2.40197
820 1 9.53134 11.9772 0.735847
821 1 10.0723 12.0432 1.67231
822 1 10.5451 12.4709 12.7437
823 1 10.1415 12.4181 2.53311
824 1 10.6623 11.9574 0.783018
825 1 11.0958 11.8904 1.71281
826 1 13.3526 12.8859 12.0119
827 1 11.1213 12.6291 2.36869
828 1 11.7408 12.0118 0.797786
829 1 12.2096 12.1821 1.71336
830 1 11.7801 12.6343 0.102699
831 1 12.4997 12.747 2.57264
832 1 12.8529 12.2326 0.918535
833 1 9.55033 9.15857 3.10247
834 1 10.055 8.44727 4.80803
835 1 10.8204 9.21999 3.20074
836 1 10.6718 8.64839 4.01212
837 1 11.8964 9.3359 3.38837
838 1 11.7402 8.68967 4.13972
839 1 12.9236 9.36994 3.25068
840 1 12.8562 8.8902 4.10628
841 1 9.53548 10.3005 3.21216
842 1 9.31635 9.59561 4.03385
843 1 10.6041 10.2511 3.08486
844 1 10.4458 9.72188 3.9977
845 1 11.7249 10.3816 3.18264
846 1 11.6037 9.83264 4.11909
847 1 12.8625 10.5955 3.25514
848 1 12.9707 10.012 4.08181
849 1 9.41492 11.2952 3.22939
850 1 9.44616 10.7349 4.06341
851 1 10.5032 11.3413 3.27252
852 1 10.6025 10.6988 3.94807
853 1 11.7405 11.6012 3.23496
854 1 11.6151 10.9988 3.99884
855 1 12.8784 11.6526 3.22557
856 1 12.6892 11.123 4.03046
857 1 9.46965 12.4582 3.37273
858 1 9.51276 11.838 4.0395
859 1 10.7158 12.5725 3.26618
860 1 10.6515 11.928 3.98948
861 1 11.7254 12.7068 3.05889
862 1 11.6111 12.0707 4.14551
863 1 13.0035 12.6828 3.41899
864 1 12.7599 12.1866 4.17632
865 1 13.4038 0.111931 4.84217
866 1 13.4069 0.687231 5.73992
867 1 1.01119 0.242511 4.90036
868 1 1.24965 0.887301 5.58536
869 1 2.16782 0.225668 4.89031
870 1 2.25862 0.847264 5.58818
871 1 3.37047 0.403375 4.76127
872 1 3.33969 0.927808 5.58511
873 1 0.113085 1.18618 4.96581
874 1 0.00382549 1.80806 5.68255
875 1 1.15372 1.37741 4.72971
876 1 1.15704 1.95358 5.59433
877 1 2.2511 1.43054 4.89782
878 1 2.43114 2.01128 5.80492
879 1 3.41873 1.52811 4.94327
880 1 3.44289 2.08836 5.73893
881 1 13.4207 2.28728 4.82206
882 1 0.0543207 2.84303 5.63795
883 1 1.1933 2.45217 4.68352
884 1 1.24019 2.84148 5.56715
885 1 2.39826 2.61142 4.86399
886 1 2.30519 3.15941 5.68485
887 1 3.33998 3.21131 5.71306
888 1 3.79464 2.99285 6.55765
889 1 0.0901797 3.40239 4.79535
890 1 0.0319813 3.99099 5.6786
891 1 1.05675 3.6224 4.9501
892 1 1.20184 4.07465 5.75775
893 1 2.11688 3.64518 4.86783
894 1 2.37657 4.27872 5.72339
895 1 3.34668 3.69565 4.85449
896 1 3.38481 4.3448 5.52431
897 1 0.133818 0.17503 8.12746
898 1 0.682311 0.67851 6.4899
899 1 0.537802 13.4357 7.35624
900 1 1.22473 0.238951 8.0478
901 1 1.73227 0.828759 6.46657
902 1 1.76252 0.391606 7.35606
903 1 2.33765 0.340371 8.24485
904 1 2.89864 0.913594 6.42726
905 1 2.90443 0.381814 7.30064
906 1 3.49026 0.443501 8.1463
907 1 3.93687 0.991258 6.42672
908 1 3.96213 0.352354 7.22922
909 1 0.121769 1.27361 8.01997
910 1 0.474131 1.82911 6.51907
911 1 0.617655 1.16455 7.15498
912 1 1.16361 1.37865 8.17038
913 1 1.71305 1.85847 6.40036
914 1 1.71381 1.47428 7.32785
915 1 2.26247 1.50096 7.96767
916 1 2.88685 2.0419 6.53827
917 1 3.03728 1.4528 7.25703
918 1 3.28906 0.899181 9.02594
919 1 3.88694 2.6063 7.4632
920 1 4.03063 1.54608 7.39991
921 1 0.106556 2.21621 8.11951
922 1 0.556243 2.97473 6.35333
923 1 0.586989 2.4738 7.28726
924 1 1.14397 2.37945 8.17623
925 1 1.66688 2.99574 6.43913
926 1 1.53513 2.43533 7.19419
927 1 2.16278 2.57176 8.20188
928 1 2.73741 3.13725 6.56226
929 1 2.68167 2.5565 7.36746
930 1 3.21582 1.97916 8.96443
931 1 3.30642 3.81395 8.13658
932 1 3.30325 2.69412 8.14136
933 1 0.00955451 3.35792 8.18313
934 1 0.634341 4.02528 6.50219
935 1 0.550612 3.46741 7.31805
936 1 1.14652 3.41381 8.07246
937 1 1.75984 4.18909 6.48648
938 1 1.64943 3.53379 7.32675
939 1 2.2717 3.7184 8.17741
940 1 2.90656 4.33709 6.52835
941 1 2.73414 3.74264 7.20336
942 1 3.33581 4.22756 8.96056
943 1 4.50871 4.15215 5.80601
944 1 4.01365 2.08668 6.49908
945 1 4.55867 0.343054 4.74188
946 1 4.48342 0.798318 5.5957
947 1 5.66737 0.254764 4.80448
948 1 5.67882 0.6627 5.66311
949 1 6.72107 0.00859282 4.84683
950 1 6.76541 0.577196 5.60434
951 1 8.00182 13.2726 4.87294
952 1 7.93037 0.368884 5.68718
953 1 3.88896 1.59503 3.96812
954 1 4.0133 3.78091 4.21354
955 1 5.56224 1.26392 4.83014
956 1 5.5911 1.77458 5.68611
957 1 6.87069 1.0383 4.80605
958 1 6.81629 2.81862 5.77117
959 1 7.9064 0.976379 4.91812
960 1 8.04335 1.61887 5.73148
961 1 4.53039 2.00629 5.64377
962 1 4.96157 3.45861 7.31744
963 1 5.84373 2.54442 4.90526
964 1 5.02299 2.97479 6.49494
965 1 6.73579 2.21599 4.96729
966 1 6.70899 3.74877 5.57928
967 1 7.73303 2.06737 4.81667
968 1 7.87061 2.73368 5.54611
969 1 5.54812 3.52557 4.82518
970 1 3.8066 4.14292 6.42949
971 1 4.97454 4.63867 4.08317
972 1 5.62112 4.52766 4.81225
973 1 6.76643 3.30494 4.69396
974 1 6.8202 4.29003 4.85677
975 1 7.9037 3.73753 5.78087
976 1 8.44017 3.75746 6.5026
977 1 4.45209 0.325247 8.12873
978 1 5.02593 0.704486 6.33103
979 1 5.12045 0.276147 7.2953
980 1 5.57734 0.0593737 8.02549
981 1 6.25072 0.615499 6.5376
982 1 6.22485 0.057047 7.21371
983 1 6.632 12.9449 8.82881
984 1 7.37309 0.439324 6.45498
985 1 6.72025 0.00567368 8.09504
986 1 7.84606 13.3274 8.00055
987 1 8.41153 0.203743 6.45986
988 1 8.42623 13.1103 7.24873
989 1 4.5084 1.3525 8.16197
990 1 5.04866 1.81049 6.52386
991 1 5.14812 1.26801 7.21149