data.lammps (converted from cfg to data.lammps)
    
2298  atoms
1  atom types
0.0   13.4375  xlo xhi
0.0   13.4375  ylo yhi
0.0   12.952  zlo zhi
0.0  0.0 0.0 xy xz yz
    
    
    
Atoms
  
1 1 0.00285789 13.1611 1.76595
2 1 0.665195 0.324935 0.0805051
3 1 0.0775631 0.307144 2.46927
4 1 0.658124 13.0304 0.716224
5 1 0.982977 13.2982 1.65859
6 1 2.28812 0.600261 12.1391
7 1 1.18446 0.4905 2.53506
8 1 1.74669 13.3418 0.87769
9 1 2.23615 13.3131 1.619
10 1 2.84977 1.18381 0.842559
11 1 2.13499 0.476185 2.35482
12 1 2.89222 0.148741 0.787449
13 1 3.35924 13.3966 1.62853
14 1 4.08779 0.818383 0.156656
15 1 3.37027 0.526233 2.48572
16 1 3.9089 0.134943 0.723576
17 1 13.365 0.804928 1.62387
18 1 0.588767 1.2943 0.0132665
19 1 0.0120438 1.36874 2.33764
20 1 0.576467 0.747861 0.945944
21 1 1.27265 0.900265 1.5877
22 1 1.7043 1.58333 0.0871411
23 1 1.0172 1.40558 2.4328
24 1 1.78555 1.00501 0.834264
25 1 2.31667 1.05976 1.76747
26 1 2.82068 1.7164 12.95
27 1 2.15017 1.64951 2.59225
28 1 3.39141 0.98821 1.70472
29 1 3.87906 1.39389 0.859442
30 1 4.03929 1.91267 0.011904
31 1 5.04936 1.84821 3.14279
32 1 5.14205 1.59034 0.916291
33 1 0.00491228 2.00626 1.63046
34 1 0.627572 2.48747 0.0957246
35 1 13.1357 2.68637 2.3901
36 1 0.625345 1.89751 0.751583
37 1 1.05387 2.06892 1.57898
38 1 1.81144 2.75603 12.9381
39 1 1.13934 2.59998 2.41502
40 1 1.73247 2.09864 1.00358
41 1 2.18893 2.07566 1.7852
42 1 2.90539 2.84108 0.231543
43 1 2.28709 2.71619 2.63822
44 1 2.80989 2.26927 0.885618
45 1 3.23265 2.19184 1.73219
46 1 3.91537 2.91411 12.9399
47 1 2.78898 2.76327 3.44309
48 1 3.96887 2.49154 0.921181
49 1 0.0893302 3.01622 1.39819
50 1 0.497618 3.7425 12.8965
51 1 0.0192844 3.60961 2.37023
52 1 0.687024 3.3167 0.630792
53 1 1.01063 3.16006 1.78902
54 1 1.66522 3.78423 12.8995
55 1 1.12492 3.84634 2.42035
56 1 1.67685 3.10565 0.832204
57 1 2.06159 3.21597 1.67478
58 1 2.79221 3.86011 12.9162
59 1 2.34245 3.80987 2.32525
60 1 2.74836 3.40107 1.02686
61 1 3.40736 3.25656 1.72069
62 1 3.91374 4.05315 0.0227367
63 1 3.37387 4.03564 2.4243
64 1 3.99561 3.50617 0.892511
65 1 0.586228 0.224965 3.28855
66 1 0.464346 13.1753 4.04573
67 1 1.76367 0.503331 3.29182
68 1 1.62513 13.2042 4.04744
69 1 2.9116 0.330761 3.26529
70 1 2.68759 13.3701 4.06432
71 1 4.01324 0.72211 3.24045
72 1 3.94213 0.18678 4.12203
73 1 0.462868 1.44081 3.32782
74 1 0.647584 0.920348 4.08198
75 1 1.72329 1.56345 3.31618
76 1 1.7815 0.864733 4.15174
77 1 2.87029 1.4298 3.12045
78 1 2.86551 1.14244 4.06084
79 1 3.99951 2.50021 4.04715
80 1 4.51736 1.86195 2.28938
81 1 0.498608 2.43478 3.00071
82 1 0.628058 2.12256 4.09112
83 1 1.61861 2.8085 3.29574
84 1 1.66762 2.04384 4.02658
85 1 2.74899 2.12909 4.03698
86 1 3.3319 2.41737 4.76694
87 1 3.43472 2.97096 2.51234
88 1 4.55209 2.50818 4.74138
89 1 0.568492 3.40635 3.27126
90 1 0.375446 2.97818 4.03376
91 1 1.63346 3.81921 3.13593
92 1 1.67672 3.15065 4.17816
93 1 2.56875 3.96311 3.24071
94 1 2.87314 3.51161 4.00551
95 1 3.76673 4.03309 3.29166
96 1 3.96357 3.0394 3.24185
97 1 4.48714 0.11998 1.6431
98 1 5.13228 0.877924 0.0766274
99 1 4.55817 0.780379 2.53855
100 1 5.04281 0.482723 1.0937
101 1 5.75356 0.349673 1.7419
102 1 6.20994 0.854961 12.951
103 1 5.47303 0.896569 2.44459
104 1 6.19328 0.283379 0.844648
105 1 6.76363 0.460742 1.68904
106 1 7.39067 0.81453 0.0661461
107 1 6.59988 1.04149 2.48988
108 1 7.30649 0.29304 0.900015
109 1 7.88214 0.243747 1.71183
110 1 8.48082 0.663142 0.165505
111 1 7.84823 0.863292 2.4446
112 1 8.3649 0.0884134 0.866626
113 1 4.39295 1.14971 1.61666
114 1 5.0393 1.92146 12.8765
115 1 3.45991 1.81495 2.53183
116 1 5.62529 1.512 1.73662
117 1 6.18969 1.4261 0.837304
118 1 6.2104 2.72487 0.830311
119 1 5.59898 2.09542 2.51016
120 1 6.23571 2.00213 0.113752
121 1 6.76248 1.50809 1.60321
122 1 7.33841 2.13095 0.136583
123 1 6.88121 2.0902 2.40547
124 1 7.35847 1.46395 0.668862
125 1 7.7717 1.27106 1.62061
126 1 8.5117 1.78876 12.9386
127 1 7.92808 1.99309 2.52212
128 1 8.4123 1.24203 0.883528
129 1 4.44367 2.49474 1.67055
130 1 5.14319 3.01947 12.8659
131 1 4.65897 3.0533 2.44153
132 1 5.08091 2.54681 0.842373
133 1 5.51139 2.72593 1.60872
134 1 6.23898 3.21426 0.0752775
135 1 5.68281 3.13005 2.52675
136 1 6.53194 2.49952 1.61166
137 1 7.71634 3.01805 2.47588
138 1 7.6644 2.91959 12.1013
139 1 6.70647 3.13013 2.54875
140 1 7.28075 2.64191 0.883935
141 1 7.85646 2.40791 1.57413
142 1 8.35393 2.86162 0.0450572
143 1 7.76778 3.53604 1.73623
144 1 8.57146 2.29582 0.839804
145 1 4.46496 3.75438 1.62502
146 1 4.99471 4.24398 0.151905
147 1 4.46478 4.09433 2.61542
148 1 5.03186 3.60774 0.722359
149 1 5.56815 3.67766 1.59417
150 1 6.06941 4.34719 12.8151
151 1 5.60724 4.2271 2.38261
152 1 6.12536 3.88224 0.781502
153 1 7.14312 4.34899 12.943
154 1 6.70424 4.34786 12.1057
155 1 6.72367 3.65125 1.58863
156 1 7.29318 3.79319 0.776759
157 1 7.7409 4.13514 2.40372
158 1 8.25659 3.98662 0.0215664
159 1 8.28423 3.93076 3.35625
160 1 8.47643 3.53737 0.863637
161 1 4.98396 0.508585 3.79122
162 1 4.56902 0.183322 4.83885
163 1 5.97465 0.86179 3.25831
164 1 6.18392 0.299746 4.12741
165 1 7.16888 0.838895 3.16364
166 1 7.34916 0.290665 4.07024
167 1 8.40357 0.706744 3.26534
168 1 8.41095 0.0636756 4.15465
169 1 5.08866 1.41039 4.03995
170 1 3.97802 1.36376 4.01867
171 1 6.26417 2.01927 3.19462
172 1 6.19936 1.45609 3.9906
173 1 7.25569 1.96732 3.34291
174 1 7.23159 1.39497 4.1004
175 1 8.3777 1.85235 3.34567
176 1 8.34904 1.17791 4.04911
177 1 5.05867 2.97667 3.35677
178 1 5.27191 2.50832 4.00393
179 1 6.1635 3.22667 3.32778
180 1 6.20635 2.51245 4.05408
181 1 7.27114 3.16636 3.32135
182 1 7.29776 2.54123 4.07656
183 1 8.3893 2.94891 3.13433
184 1 8.33533 2.5054 4.03997
185 1 4.94989 3.63441 4.04696
186 1 4.37404 3.57095 4.94544
187 1 6.66249 4.36089 2.28956
188 1 6.19791 3.77583 4.08615
189 1 7.1187 4.22251 3.15346
190 1 7.34199 3.67088 4.14341
191 1 8.27227 5.08472 3.12143
192 1 7.86551 3.61658 4.89555
193 1 9.1294 0.0486351 1.54077
194 1 9.60972 0.569024 0.0976151
195 1 8.93814 0.590644 2.41248
196 1 9.60168 13.4154 0.802879
197 1 10.1907 13.381 1.6401
198 1 10.6607 0.784152 12.8822
199 1 10.0924 0.351298 2.42908
200 1 10.6754 13.4322 0.720406
201 1 11.2061 13.1981 1.61606
202 1 11.7055 0.18162 12.9244
203 1 11.1245 0.245212 2.42526
204 1 11.7769 13.0882 0.851914
205 1 12.4482 13.0858 1.56069
206 1 12.8518 0.051319 0.111759
207 1 12.3417 0.198661 2.48225
208 1 13.119 12.9405 0.788785
209 1 8.96967 1.0847 1.69097
210 1 9.47639 2.76322 12.8933
211 1 8.93493 1.66442 2.40977
212 1 9.54222 1.2018 0.817464
213 1 10.0346 0.997312 1.66352
214 1 10.5839 1.90499 0.639381
215 1 10.1324 1.60217 2.37567
216 1 10.7222 0.945749 0.991606
217 1 11.344 0.996692 1.6513
218 1 11.68 1.36451 0.142313
219 1 11.1649 1.30631 2.47056
220 1 11.8777 0.633472 0.717521
221 1 12.2807 0.664937 1.70872
222 1 12.9861 1.25427 0.00682291
223 1 12.3479 1.41416 2.38999
224 1 12.8651 0.782893 0.80747
225 1 8.87754 2.31832 1.74217
226 1 8.76845 2.86717 12.1076
227 1 8.96718 2.885 2.39436
228 1 9.59346 2.24855 0.892147
229 1 10.0713 2.20773 1.69854
230 1 10.0637 2.79829 12.2097
231 1 10.0648 2.67537 2.5634
232 1 10.6009 3.17563 0.73522
233 1 11.0606 2.01716 1.57298
234 1 11.9202 2.63663 0.00665773
235 1 11.2283 2.50017 2.34693
236 1 11.6315 1.93358 0.706723
237 1 12.3399 1.70443 1.43081
238 1 12.92 2.44511 0.0488406
239 1 12.1454 2.38964 2.27741
240 1 13.0153 1.83274 0.748086
241 1 8.90619 3.49186 1.63637
242 1 9.46465 3.89225 0.0702615
243 1 8.87645 3.99078 2.63651
244 1 9.55262 3.34012 0.795615
245 1 9.97034 3.23157 1.62282
246 1 10.5018 3.74826 0.00889166
247 1 10.227 3.75406 2.41902
248 1 10.7713 2.54607 0.0689616
249 1 11.1147 3.13935 1.49236
250 1 11.615 3.59131 12.899
251 1 11.2376 3.67045 2.3514
252 1 11.7054 3.04865 0.860897
253 1 12.3603 2.88914 1.49408
254 1 12.9056 3.53559 12.8852
255 1 12.3039 3.62939 2.29972
256 1 12.9642 3.10946 0.757879
257 1 9.53284 0.473286 3.18249
258 1 9.51581 0.0342244 4.01946
259 1 10.6629 0.313052 3.29096
260 1 10.5351 13.2528 4.0823
261 1 11.7369 0.285011 3.19961
262 1 11.6769 13.1495 4.04284
263 1 12.9996 0.224142 3.15157
264 1 12.8259 13.0433 4.11337
265 1 9.58496 1.61879 3.20848
266 1 9.44177 1.12335 3.9898
267 1 10.6983 1.52349 3.30703
268 1 10.5204 0.944445 4.00129
269 1 11.7721 1.34257 3.14317
270 1 11.8677 0.779427 4.03906
271 1 12.895 1.31472 3.26561
272 1 12.88 0.707444 4.00394
273 1 9.37987 2.73764 3.27237
274 1 9.48912 2.15617 4.00105
275 1 10.7526 2.6262 3.22624
276 1 10.6522 2.02803 4.17642
277 1 11.8528 2.56366 3.24426
278 1 11.6776 1.8614 3.96794
279 1 12.9261 2.35285 3.2687
280 1 12.8915 1.93241 4.1477
281 1 9.56167 3.87613 3.07912
282 1 9.58043 3.31652 4.03036
283 1 10.7178 3.81565 3.26442
284 1 10.553 3.08106 3.96664
285 1 11.8014 3.57468 3.15724
286 1 11.6812 3.08676 4.1139
287 1 12.8645 3.56868 3.19689
288 1 12.6776 3.00601 3.91555
289 1 0.00137033 4.0854 1.54139
290 1 0.583361 4.89128 12.8933
291 1 13.412 4.59374 2.37725
292 1 0.35257 4.44885 0.801242
293 1 1.0612 4.32822 1.55566
294 1 1.64175 4.81177 0.0550592
295 1 1.08669 4.82609 2.50721
296 1 1.63888 4.23318 0.908684
297 1 2.19261 4.4718 1.64893
298 1 2.78049 4.9975 0.0135904
299 1 2.13996 5.01138 2.4926
300 1 2.70205 4.35155 0.796882
301 1 3.25921 4.56559 1.65714
302 1 3.8522 5.03397 0.00788783
303 1 3.26422 5.23499 2.48116
304 1 3.77279 4.56614 0.926946
305 1 13.4196 5.26355 1.60201
306 1 0.540346 5.87016 12.8238
307 1 13.2783 5.79531 2.30283
308 1 0.524283 5.46578 0.833927
309 1 1.10273 5.36424 1.6351
310 1 1.6958 6.03764 12.9072
311 1 1.07475 5.89074 2.50143
312 1 1.66626 5.39215 0.754005
313 1 2.11874 5.58683 1.64085
314 1 2.75654 6.05658 12.9266
315 1 2.22138 6.08777 2.44154
316 1 2.82106 5.57056 0.81193
317 1 3.24422 5.67784 1.65128
318 1 3.84548 6.24394 0.0744024
319 1 3.27579 6.21275 2.55821
320 1 3.97449 5.76993 0.779501
321 1 13.4257 6.31201 1.52942
322 1 0.532198 6.94177 12.9249
323 1 0.0293126 6.98636 2.42472
324 1 0.712686 6.43809 0.850247
325 1 0.976616 6.49229 1.85522
326 1 1.66724 7.21532 12.8258
327 1 1.25597 7.11278 2.37124
328 1 1.66331 6.57741 0.699175
329 1 2.09626 6.62689 1.45123
330 1 2.86234 7.39253 0.0456821
331 1 2.27995 7.04403 2.39318
332 1 2.83565 6.6842 0.700166
333 1 3.19391 6.71251 1.55588
334 1 3.92208 7.33055 0.0331219
335 1 3.42499 7.2854 2.47584
336 1 3.941 6.91928 0.897326
337 1 13.3876 7.35421 1.51161
338 1 0.553472 8.21473 0.0208918
339 1 0.0873366 8.04853 2.40142
340 1 0.5659 7.55437 0.737295
341 1 1.01163 7.59111 1.52894
342 1 1.60479 8.19274 12.9254
343 1 1.18497 8.19943 2.38293
344 1 1.70637 7.72455 0.760351
345 1 2.22956 7.74637 1.5807
346 1 2.79793 8.54681 12.8898
347 1 2.20723 8.18402 2.33983
348 1 2.76315 7.91036 0.768289
349 1 3.34091 7.74834 1.6021
350 1 3.87251 8.48359 12.888
351 1 2.75262 9.51367 3.07
352 1 3.98564 8.03161 0.901713
353 1 0.576822 4.84861 3.28083
354 1 0.501305 4.08011 3.86859
355 1 1.73866 5.01463 3.40336
356 1 1.69408 4.32756 4.12624
357 1 2.79048 4.95192 3.20167
358 1 2.88156 4.5345 4.18843
359 1 3.88423 5.11218 3.35042
360 1 3.93988 4.567 4.09001
361 1 0.478783 5.87771 3.17236
362 1 0.520163 5.3191 4.0687
363 1 1.61034 6.17031 3.30745
364 1 1.62517 5.51349 4.11621
365 1 2.69664 6.13724 3.39368
366 1 2.89346 5.58714 4.0886
367 1 3.9254 6.28473 3.19288
368 1 3.89483 5.78832 4.04319
369 1 0.47555 6.963 3.22305
370 1 0.462603 6.35352 4.02547
371 1 1.63811 7.07764 3.24587
372 1 1.48456 6.55199 4.13978
373 1 2.80674 7.34803 3.18643
374 1 2.63481 6.86066 4.00703
375 1 5.03251 7.51176 3.19474
376 1 3.39044 6.8313 4.78167
377 1 0.573128 8.04314 3.23283
378 1 0.677112 7.57863 4.11462
379 1 1.67657 8.15799 3.34083
380 1 1.71598 7.67249 4.16105
381 1 3.78384 8.61888 3.06465
382 1 2.94003 7.91121 3.98691
383 1 3.92957 7.50617 3.237
384 1 3.93422 8.13947 3.96606
385 1 4.36251 4.71319 1.66887
386 1 4.90012 5.35889 12.9043
387 1 4.35387 5.1844 2.50971
388 1 5.00408 4.89869 0.778764
389 1 5.50903 5.36561 2.39466
390 1 6.06233 4.90011 0.782687
391 1 6.06713 5.48841 3.23823
392 1 5.43887 4.80424 1.64047
393 1 6.63033 4.92535 1.60276
394 1 6.62384 5.53273 12.0731
395 1 6.65606 5.41817 2.42182
396 1 7.17342 4.77472 0.889402
397 1 7.79243 4.733 1.72436
398 1 8.26803 5.12846 12.9354
399 1 7.77346 5.37024 2.33139
400 1 8.2986 4.57011 0.851937
401 1 4.3265 5.82233 1.69404
402 1 4.97824 6.41536 0.011091
403 1 4.37272 6.46391 2.32948
404 1 4.94749 6.03293 0.922747
405 1 5.58745 5.89746 1.5498
406 1 6.15581 6.61957 12.9014
407 1 5.97223 6.62052 3.14745
408 1 6.09049 5.95449 0.762351
409 1 6.67558 6.07832 1.72433
410 1 7.14223 5.77947 0.769906
411 1 6.67481 6.49719 2.52473
412 1 7.22739 5.44732 12.9105
413 1 7.72264 5.87449 1.54056
414 1 8.15202 6.27698 12.9307
415 1 7.89364 6.46207 2.37908
416 1 8.44605 5.67849 0.770542
417 1 4.47711 7.007 1.63958
418 1 4.88483 7.63669 0.0819316
419 1 4.48997 7.56674 2.41882
420 1 5.03953 7.04762 0.866424
421 1 5.48414 6.52274 2.27502
422 1 6.14888 7.70134 0.106358
423 1 5.57268 7.15591 1.63181
424 1 6.0549 7.04454 0.697065
425 1 6.58265 7.03906 1.52774
426 1 7.45762 7.61752 0.026223
427 1 6.78191 7.51825 2.45938
428 1 7.25363 7.05584 0.817006
429 1 7.79906 6.92222 1.55333
430 1 8.32102 6.7222 0.777492
431 1 7.7723 7.55553 2.28899
432 1 9.0374 6.77547 1.43459
433 1 4.43659 8.28286 1.63304
434 1 5.00095 8.74277 12.9434
435 1 4.64181 8.64778 2.50234
436 1 5.12959 8.22457 0.810308
437 1 5.67623 7.72788 2.53336
438 1 5.96278 8.80956 0.0489411
439 1 5.5791 8.13936 1.57062
440 1 6.30068 8.18725 0.863203
441 1 6.74917 8.16827 1.72702
442 1 7.10836 8.62568 0.038203
443 1 6.74092 8.71851 2.48215
444 1 7.25642 8.09562 0.942244
445 1 8.00512 8.1761 1.60534
446 1 8.35935 7.88111 0.755464
447 1 7.77466 9.17018 1.5566
448 1 8.47124 7.29605 0.0069689
449 1 4.96598 5.45241 3.21901
450 1 5.09119 4.21407 3.31541
451 1 6.14152 6.09087 3.98041
452 1 6.10597 4.33593 3.24892
453 1 7.20265 5.32817 3.22689
454 1 7.31542 4.71897 3.98187
455 1 8.36878 5.71556 3.94105
456 1 8.55077 3.52048 4.11137
457 1 5.00293 5.9548 4.08663
458 1 4.49167 5.32818 5.6961
459 1 5.99888 7.0937 4.10419
460 1 6.19312 7.69463 3.27868
461 1 7.3129 6.49989 3.25752
462 1 8.37753 6.239 6.46467
463 1 8.48184 6.36198 3.23177
464 1 7.82415 6.1081 5.61787
465 1 4.94985 8.0557 4.05148
466 1 4.98999 6.45709 3.14218
467 1 6.17858 8.844 3.26464
468 1 4.96686 7.03352 4.0106
469 1 6.02376 8.23728 4.00897
470 1 7.26975 7.57497 3.3977
471 1 8.23711 7.4937 3.17293
472 1 8.44016 6.87782 4.06471
473 1 5.09968 8.70911 3.26016
474 1 4.49199 8.11495 4.90194
475 1 5.54361 8.47607 4.80369
476 1 6.5924 8.15095 4.80571
477 1 7.2978 8.58444 3.16899
478 1 6.7541 9.30907 4.79365
479 1 7.97962 8.73944 2.51309
480 1 8.33276 7.86494 4.11529
481 1 8.94893 4.60171 1.75158
482 1 9.40953 5.14596 12.9413
483 1 9.03375 5.14465 2.48191
484 1 9.41644 4.48689 0.809775
485 1 9.96219 4.3099 1.56235
486 1 10.5508 4.79481 0.0281819
487 1 10.0938 4.899 2.36229
488 1 10.5514 4.32123 0.873993
489 1 11.1841 4.26598 1.60392
490 1 11.7074 4.65689 0.0786673
491 1 11.1379 4.77604 2.39314
492 1 11.7829 4.08141 0.753762
493 1 12.4105 4.05061 1.56535
494 1 12.8239 4.78438 12.8956
495 1 12.221 4.74088 2.58914
496 1 12.7832 4.20957 0.60661
497 1 8.88126 5.59364 1.46083
498 1 9.31263 6.14811 0.000154375
499 1 9.42229 6.07458 3.12668
500 1 9.58193 5.58816 0.87156
501 1 10.1257 5.48773 1.63439
502 1 10.6142 6.02009 12.9289
503 1 9.96947 6.17597 2.38687
504 1 10.6767 5.39759 0.711881
505 1 11.164 5.37632 1.57724
506 1 11.7816 5.85555 12.918
507 1 11.2117 5.85127 2.52727
508 1 11.6683 5.32094 0.712216
509 1 12.2259 5.05501 1.57829
510 1 12.8939 5.87896 0.0401657
511 1 12.2602 5.81923 2.37406
512 1 12.76 5.35001 0.94768
513 1 8.91054 6.19731 2.25852
514 1 9.51087 7.27211 12.9104
515 1 8.88311 7.29756 2.49557
516 1 9.65437 6.67825 0.73708
517 1 10.0876 6.64642 1.6284
518 1 10.6113 7.15603 0.0376854
519 1 10.0865 7.28368 2.54976
520 1 10.7219 6.58959 0.761114
521 1 11.0539 6.48045 1.69898
522 1 11.7503 6.98665 12.935
523 1 11.2755 7.08029 2.38138
524 1 11.6911 6.43979 0.827354
525 1 12.1346 6.33682 1.59121
526 1 12.8781 6.98121 0.168407
527 1 12.4342 6.88703 2.34385
528 1 12.7852 6.46363 0.825753
529 1 9.01351 7.74242 1.61124
530 1 10.1339 8.22616 12.2492
531 1 8.44859 8.44955 3.29364
532 1 9.50127 7.94145 0.677698
533 1 10.0687 7.68258 1.58622
534 1 10.7637 8.22777 0.00659578
535 1 10.1318 8.32265 2.39244
536 1 10.5303 7.71018 0.763522
537 1 11.1315 7.58881 1.5729
538 1 11.8045 8.18126 0.0523247
539 1 11.2 8.22758 2.41884
540 1 11.7191 7.48361 0.860397
541 1 12.2826 7.55452 1.60015
542 1 12.92 8.06071 12.8522
543 1 12.2685 8.0036 2.50648
544 1 12.8864 7.68114 0.824334
545 1 9.41915 4.90699 3.328
546 1 9.41752 4.40985 4.03452
547 1 10.4582 4.97104 3.22254
548 1 10.4622 4.28764 4.09831
549 1 11.5157 4.6478 3.24187
550 1 11.7532 4.20617 4.01158
551 1 12.9261 4.64415 3.17443
552 1 12.7949 4.10119 4.0074
553 1 9.56336 6.66551 4.02854
554 1 9.50914 5.64723 4.01445
555 1 10.5494 5.94404 3.1278
556 1 10.6749 5.44119 4.0962
557 1 11.7609 5.9372 3.2354
558 1 11.7549 5.26608 3.94673
559 1 12.8928 5.62143 3.19968
560 1 12.8638 5.26399 4.09288
561 1 9.5628 8.28908 3.25379
562 1 9.42485 7.2181 3.19236
563 1 10.7055 7.08447 3.31021
564 1 10.5238 6.48413 4.04023
565 1 11.6263 7.07088 3.25537
566 1 11.644 6.37959 4.0111
567 1 12.7248 6.88273 3.28087
568 1 12.8421 6.39699 4.03216
569 1 9.00694 8.51443 2.44978
570 1 8.93334 7.96888 4.86193
571 1 10.5324 8.15526 3.31482
572 1 10.6224 7.62932 4.13442
573 1 11.6691 8.16028 3.33523
574 1 11.9108 7.49119 4.09764
575 1 12.8451 8.11359 3.17933
576 1 13.0071 7.49779 3.89666
577 1 13.4094 8.62729 1.64016
578 1 0.46411 9.35194 12.9447
579 1 0.00579515 9.16487 2.38211
580 1 0.466433 8.69782 0.777637
581 1 1.05142 8.63431 1.47803
582 1 1.56161 9.34375 12.8264
583 1 1.0468 9.26627 2.3909
584 1 1.64342 8.8042 0.763151
585 1 2.2745 8.94268 1.51588
586 1 2.64322 9.57384 12.9318
587 1 2.21789 9.32733 2.32731
588 1 2.81543 8.95475 0.826042
589 1 3.278 9.09138 1.70983
590 1 3.79789 9.60531 12.7985
591 1 3.33802 8.40228 2.36949
592 1 3.90599 9.12093 0.769964
593 1 0.13339 9.79369 1.47852
594 1 0.611903 10.5818 12.7906
595 1 13.4239 10.2452 2.3468
596 1 0.603678 9.86734 0.616689
597 1 1.12817 9.70381 1.48831
598 1 1.66758 10.5915 0.134749
599 1 1.10347 10.3042 2.35414
600 1 1.76292 9.87052 0.780908
601 1 2.19855 10.047 1.67644
602 1 2.83385 10.7028 12.9292
603 1 2.23593 10.5659 2.46738
604 1 2.77061 10.0777 0.816589
605 1 3.3923 10.268 1.57887
606 1 3.95769 10.7868 0.0226248
607 1 3.40672 10.7582 2.38731
608 1 3.95326 10.2132 0.788167
609 1 13.3816 10.8873 1.70048
610 1 0.54524 11.7261 0.0735575
611 1 0.106494 11.5041 2.40789
612 1 0.512539 10.8954 0.792095
613 1 1.06204 10.8562 1.57502
614 1 1.66411 11.6543 0.0109135
615 1 1.21169 11.312 2.40618
616 1 1.60821 11.1428 0.918065
617 1 2.30491 11.0744 1.57986
618 1 2.7198 11.8109 0.0563839
619 1 2.32365 11.8017 2.4512
620 1 2.80453 11.1876 0.791598
621 1 3.45817 11.3931 1.62147
622 1 3.88055 11.7805 0.0137667
623 1 3.45516 11.8052 2.44263
624 1 3.94428 11.3662 0.847903
625 1 0.074428 12.0351 1.58696
626 1 0.805769 12.577 12.4628
627 1 0.0280806 12.5373 2.48668
628 1 0.69205 12.0793 0.898077
629 1 1.16822 11.9893 1.76739
630 1 1.6942 0.406925 0.039278
631 1 1.21089 12.7413 2.24601
632 1 1.64823 12.2239 0.829052
633 1 2.24805 12.2284 1.58297
634 1 2.67538 12.9899 0.0243855
635 1 2.39536 12.8054 2.51054
636 1 2.78855 12.3905 0.783135
637 1 3.32167 12.4375 1.66345
638 1 3.84345 13.0734 12.9022
639 1 3.55489 12.9216 2.50536
640 1 3.86445 12.4527 0.697274
641 1 0.544282 9.15569 3.16086
642 1 0.627718 8.62912 4.00335
643 1 1.6776 9.27908 3.1201
644 1 1.75389 8.77811 4.08669
645 1 2.66299 8.38943 3.17494
646 1 2.90293 9.00905 3.99823
647 1 3.38302 9.70416 2.4044
648 1 3.88369 9.81888 3.17433
649 1 0.615888 10.3283 3.19271
650 1 0.632122 9.7411 4.02797
651 1 1.67687 10.3747 3.30439
652 1 1.76502 9.76803 3.92929
653 1 2.81514 10.5874 3.20471
654 1 2.91349 10.047 4.02794
655 1 4.06677 10.8206 3.21896
656 1 4.0246 10.3904 4.10686
657 1 0.67881 11.4719 3.22703
658 1 0.585868 10.8674 4.0611
659 1 1.74921 11.5173 3.15493
660 1 1.61504 11.002 3.99491
661 1 2.98138 11.6253 3.3065
662 1 2.89067 11.0812 4.112
663 1 3.97257 11.9603 3.32267
664 1 4.05318 11.382 4.1031
665 1 0.632406 12.5262 3.19193
666 1 0.492836 12.0623 4.08527
667 1 1.62084 12.8152 3.10119
668 1 1.63459 12.2051 3.90192
669 1 2.84217 12.7704 3.25264
670 1 2.49486 12.057 4.00184
671 1 3.95596 13.0321 3.36696
672 1 3.87059 12.5665 4.17418
673 1 4.33666 9.27929 1.58425
674 1 5.02619 10.0317 12.8322
675 1 4.47634 9.74169 2.44297
676 1 4.91752 9.3641 0.76921
677 1 5.50557 9.34671 1.56193
678 1 6.13914 11.0498 0.0247302
679 1 5.52875 9.87128 2.38971
680 1 6.1307 9.29871 0.851896
681 1 6.75322 9.28613 1.50773
682 1 7.35708 9.82338 12.9291
683 1 6.73033 9.8454 2.29113
684 1 7.26773 9.23675 0.651543
685 1 8.39594 9.10044 0.827222
686 1 8.40806 9.62546 12.922
687 1 7.79466 10.3323 1.51294
688 1 8.3251 8.5943 12.9013
689 1 4.55539 10.3068 1.5756
690 1 5.07833 11.0687 0.00197395
691 1 4.49843 10.9203 2.3308
692 1 5.15034 10.3422 0.720987
693 1 5.65811 10.4744 1.62882
694 1 5.66847 10.9943 12.1569
695 1 5.6701 10.9962 2.50265
696 1 6.22854 9.94958 12.9263
697 1 6.22062 10.5374 0.751417
698 1 7.47378 11.0577 12.9042
699 1 6.8436 10.9351 2.30144
700 1 6.66364 10.3755 1.55638
701 1 7.27952 10.3953 0.717163
702 1 8.47557 10.6056 12.9266
703 1 7.88648 10.8264 2.50483
704 1 8.48456 10.2102 0.867994
705 1 4.64215 11.5481 1.64799
706 1 5.09499 12.0959 12.8524
707 1 4.42357 12.1004 2.40963
708 1 5.12634 11.567 0.788831
709 1 5.63485 11.5768 1.61326
710 1 6.17534 12.1835 12.9074
711 1 5.54498 12.039 2.47877
712 1 6.20419 11.6906 0.820882
713 1 6.73384 11.6271 1.73412
714 1 7.17679 12.1402 12.8953
715 1 6.76958 12.2367 2.35603
716 1 7.20405 11.4544 0.761563
717 1 7.79191 11.4075 1.5555
718 1 8.42074 11.8736 0.0246295
719 1 7.93578 11.8861 2.51695
720 1 8.46474 11.2863 0.774596
721 1 4.50085 12.5604 1.41064
722 1 5.15293 13.334 0.100788
723 1 4.52896 13.0843 2.50536
724 1 5.03298 12.6624 0.719668
725 1 5.59318 12.6552 1.74857
726 1 6.26784 13.1253 0.0130245
727 1 5.64129 13.156 2.47248
728 1 6.08599 12.7251 0.936928
729 1 6.77947 12.7305 1.43509
730 1 7.24215 13.2495 0.053266
731 1 6.76456 13.2418 2.36029
732 1 7.41997 12.5065 0.839963
733 1 7.89166 12.3722 1.60364
734 1 8.33747 12.9555 12.9449
735 1 7.91905 12.9568 2.24178
736 1 8.6055 12.4782 0.834487
737 1 5.06595 9.90322 3.23562
738 1 4.97716 9.33789 4.01792
739 1 6.21374 9.99964 3.10605
740 1 6.20592 9.40049 3.94682
741 1 7.83985 9.86319 2.35576
742 1 7.17069 9.2112 3.96602
743 1 8.42035 9.64513 3.25043
744 1 9.0273 9.04678 4.76338
745 1 5.02744 11.0779 3.11665
746 1 5.18009 10.4663 3.90057
747 1 6.37287 11.0471 3.16644
748 1 6.19447 10.5196 3.98477
749 1 7.42343 10.9581 3.32227
750 1 7.27521 10.4006 4.09037
751 1 8.50281 10.8075 3.33074
752 1 8.40039 10.1628 4.05403
753 1 5.04307 12.144 3.33627
754 1 5.22709 11.5637 4.08488
755 1 6.19537 12.0759 3.15296
756 1 6.18739 11.7039 4.08281
757 1 7.32013 12.0355 3.15443
758 1 7.35175 11.5056 4.04589
759 1 8.50618 11.966 3.25115
760 1 8.40842 11.3753 4.12153
761 1 5.14109 13.295 3.27622
762 1 5.23658 12.7245 4.12401
763 1 6.32373 13.2641 3.20022
764 1 6.35465 12.6738 3.90332
765 1 7.39749 13.2549 3.11601
766 1 7.38434 12.706 3.95535
767 1 8.42855 13.035 3.21374
768 1 8.36586 12.3863 4.12862
769 1 8.88592 8.92555 1.64025
770 1 9.48936 8.83829 0.879171
771 1 8.95345 9.54902 2.39999
772 1 9.54427 9.43803 0.118229
773 1 10.0322 8.96968 1.77735
774 1 10.149 9.33175 12.1947
775 1 10.0605 9.44095 2.60272
776 1 10.528 8.76258 0.750741
777 1 11.1098 8.66423 1.47662
778 1 11.7448 9.25666 12.8578
779 1 11.3032 9.20701 2.45807
780 1 11.7119 8.6389 0.834288
781 1 12.2994 8.58009 1.67734
782 1 12.8184 9.25723 12.854
783 1 12.3807 9.30849 2.26268
784 1 12.837 8.69836 0.731292
785 1 9.0605 10.0639 1.60243
786 1 9.46895 10.7371 12.9281
787 1 9.01011 10.6664 2.37467
788 1 9.59151 10.1816 0.726537
789 1 10.0748 9.85278 1.54247
790 1 10.6719 10.0442 0.783675
791 1 10.082 10.4394 2.42559
792 1 10.7044 9.42108 0.090633
793 1 11.1494 9.75131 1.64081
794 1 11.7454 10.3252 0.0358238
795 1 11.1854 10.4175 2.28754
796 1 11.7325 9.63928 0.777735
797 1 12.2292 9.89374 1.4833
798 1 12.8739 10.3274 0.0352268
799 1 12.27 10.3191 2.57027
800 1 12.8634 9.75167 0.801259
801 1 8.79642 11.2541 1.64383
802 1 9.57325 11.7756 12.9245
803 1 8.92994 11.7744 2.43285
804 1 9.53209 11.2651 0.935504
805 1 10.2163 11.0451 1.62882
806 1 10.6019 11.5563 0.0509745
807 1 9.97647 11.6049 2.35154
808 1 10.735 11.1115 0.862001
809 1 11.4246 10.9585 1.547
810 1 11.7654 11.6178 12.8591
811 1 11.1338 11.4588 2.53149
812 1 11.9164 11.0036 0.580946
813 1 12.3064 10.7551 1.73228
814 1 12.9628 11.6263 0.0729297
815 1 12.3366 11.4321 2.52672
816 1 12.8817 10.8612 0.750084
817 1 9.10337 12.3794 1.66776
818 1 9.48511 12.837 0.0164515
819 1 8.97742 12.8914 2.42171
820 1 9.68333 12.2112 0.803459
821 1 10.1962 12.3374 1.65049
822 1 10.7022 12.774 0.0105736
823 1 10.0312 12.7587 2.58154
824 1 10.6674 12.2617 0.780283
825 1 11.1726 11.9395 1.6329
826 1 12.4687 12.5818 12.0513
827 1 11.2546 12.5265 2.42074
828 1 11.7776 12.1065 0.886597
829 1 12.376 11.8914 1.63606
830 1 12.2422 12.602 0.0623343
831 1 12.4114 12.5249 2.30318
832 1 12.8768 11.9283 0.898418
833 1 9.38381 9.52625 3.31289
834 1 10.1059 8.74077 4.80249
835 1 10.6523 9.33449 3.21776
836 1 10.6561 8.80999 3.96035
837 1 11.8332 9.11898 3.20238
838 1 11.6762 8.56153 4.18268
839 1 12.863 9.15482 3.2019
840 1 12.8195 8.63087 4.06315
841 1 9.46922 10.5863 3.2724
842 1 9.72372 10.0886 4.10098
843 1 10.6433 10.5003 3.23023
844 1 10.6898 9.86427 4.01196
845 1 11.6188 10.1599 3.19065
846 1 11.817 9.62685 4.07185
847 1 12.9772 10.2164 3.17183
848 1 12.8789 9.7262 3.99388
849 1 9.57863 11.6381 3.25163
850 1 9.65896 11.0783 4.09966
851 1 10.5834 11.4666 3.24492
852 1 10.8253 11.0492 4.12125
853 1 11.8133 11.4238 3.21144
854 1 11.8874 10.7198 3.91729
855 1 13.0495 11.3084 3.2599
856 1 12.8675 10.7131 4.02658
857 1 9.49592 12.7795 3.32504
858 1 9.54437 12.1373 4.07114
859 1 10.6859 12.6241 3.13577
860 1 10.6521 12.137 4.09595
861 1 11.8077 12.6757 3.25243
862 1 11.7546 12.0133 3.94379
863 1 12.8435 12.5818 3.23764
864 1 12.9239 11.8744 3.95305
865 1 0.0163782 13.1722 4.93563
866 1 0.0118918 0.177668 5.78663
867 1 1.06099 13.1188 4.86065
868 1 1.19617 0.375704 5.62104
869 1 2.11169 13.3175 4.82411
870 1 2.1799 0.539362 5.60569
871 1 3.34247 0.0942483 4.87373
872 1 3.27151 0.760796 5.67163
873 1 0.0470581 0.734306 4.80622
874 1 13.3092 1.35891 5.57624
875 1 1.13181 0.912503 4.91014
876 1 0.951061 1.44804 5.74693
877 1 2.31695 1.06642 4.92246
878 1 2.31004 1.59889 5.73587
879 1 3.40138 1.34577 4.91466
880 1 3.32124 1.90991 5.61578
881 1 0.0177593 1.91847 4.79948
882 1 0.0199251 2.48224 5.50838
883 1 1.16479 1.95637 4.92625
884 1 0.998727 2.63775 5.57884
885 1 2.20239 2.24855 4.91576
886 1 2.12296 2.76276 5.70554
887 1 3.24935 2.90654 5.83143
888 1 3.98902 2.94116 6.5039
889 1 13.3056 3.15479 4.75385
890 1 13.4315 3.69234 5.73044
891 1 0.995173 3.08796 4.81529
892 1 1.05934 3.9051 5.64904
893 1 2.29469 3.22049 4.7986
894 1 2.05428 3.76654 5.64693
895 1 3.1799 3.46044 4.92631
896 1 3.31468 3.9827 5.73143
897 1 0.0572089 13.0426 8.22218
898 1 0.677534 0.366113 6.44898
899 1 0.663823 13.2321 7.40047
900 1 1.12846 13.215 8.20161
901 1 1.79388 0.451817 6.52967
902 1 1.69697 13.3523 7.30708
903 1 2.19668 0.0124241 8.18939
904 1 2.85672 0.48397 6.52961
905 1 2.80497 0.0249772 7.34911
906 1 3.41326 0.0867849 8.20393
907 1 3.89791 0.813165 6.40935
908 1 3.86824 0.252754 7.25023
909 1 13.3639 0.804076 8.24348
910 1 0.558664 1.46889 6.53391
911 1 0.446386 0.838057 7.33631
912 1 1.09389 0.914473 8.06858
913 1 1.72976 1.56425 6.31563
914 1 1.55499 1.0817 7.27848
915 1 2.31239 1.1065 8.06424
916 1 2.83636 1.61235 6.56593
917 1 2.85211 1.03136 7.38765
918 1 3.28281 0.655495 8.8719
919 1 3.85361 2.40421 7.28905
920 1 4.08234 1.26385 7.3327
921 1 13.3218 1.82092 8.01054
922 1 0.447879 2.54689 6.50477
923 1 0.483398 2.02687 7.29174
924 1 1.00669 2.07213 8.09486
925 1 1.48144 2.59657 6.46709
926 1 1.59525 2.01478 7.35088
927 1 2.16226 2.19668 8.13348
928 1 2.6608 2.80097 6.45842
929 1 2.63767 2.17567 7.24644
930 1 3.34727 1.69862 8.89638
931 1 3.34142 3.50556 8.10864
932 1 3.2567 2.33173 8.01181
933 1 13.3893 2.97619 8.12391
934 1 0.564173 3.61282 6.44459
935 1 0.398224 3.20049 7.36642
936 1 1.12066 3.14294 8.0298
937 1 1.69399 3.72528 6.60885
938 1 1.60089 3.14394 7.30637
939 1 2.28427 3.31234 8.06338
940 1 2.7084 4.05264 6.36902
941 1 2.71935 3.36447 7.23505
942 1 3.26306 4.00257 8.82707
943 1 4.54858 4.25678 5.65607
944 1 3.93076 1.83574 6.58063
945 1 4.45499 0.838977 5.68297
946 1 4.54886 1.37867 4.83595
947 1 5.53234 0.398918 4.77132
948 1 5.70394 0.99926 5.59931
949 1 6.82483 0.373911 4.76858
950 1 6.72875 0.866758 5.63372
951 1 7.85067 0.269348 4.89653
952 1 7.85016 0.815721 5.62731
953 1 3.98246 1.92371 3.32246
954 1 3.93959 3.60015 4.04834
955 1 5.58952 1.53886 4.83928
956 1 5.56495 2.08749 5.6263
957 1 6.67889 1.51486 4.82357
958 1 6.74878 3.13365 5.67944
959 1 7.7765 1.48366 4.88636
960 1 7.77912 1.95884 5.69439
961 1 4.41204 2.00517 5.67629
962 1 4.9425 3.69631 7.31626
963 1 5.67259 2.8436 4.99195
964 1 4.93426 3.0582 6.50986
965 1 6.68732 2.73348 4.85517
966 1 6.65541 4.23719 5.67189
967 1 7.87722 2.57641 4.90165
968 1 7.92924 3.04666 5.78261
969 1 5.53513 3.72807 4.75886
970 1 3.98863 4.1217 6.31348
971 1 5.05155 4.81077 3.98955
972 1 5.65607 4.88929 4.77618
973 1 6.70232 3.8496 4.82123
974 1 6.7936 4.92744 4.84426
975 1 7.83056 4.22534 5.64497
976 1 8.31464 3.9813 6.50525
977 1 4.53494 0.270966 8.07595
978 1 5.14792 0.861677 6.36207
979 1 5.07751 0.454217 7.28791
980 1 5.58461 0.252292 8.1424
981 1 6.22984 1.02382 6.4908
982 1 6.29513 0.393306 7.24996
983 1 6.77793 13.2134 8.93211
984 1 7.32397 0.771702 6.45835
985 1 6.61859 0.2155 8.1558
986 1 7.82346 0.166491 8.14979
987 1 8.41155 0.717494 6.48557
988 1 8.34587 0.0951343 7.23299
989 1 4.55131 1.49316 8.2171
990 1 5.05297 1.92326 6.43815
991 1 5.10105 1.42253 7.19999