data.lammps (converted from cfg to data.lammps)
    
2298  atoms
1  atom types
0.0   13.4375  xlo xhi
0.0   13.4375  ylo yhi
0.0   12.952  zlo zhi
0.0  0.0 0.0 xy xz yz
    
    
    
Atoms
  
1 1 13.335 13.3408 1.57886
2 1 0.626448 0.5582 0.0144824
3 1 0.0493252 0.561585 2.33016
4 1 0.543322 0.138171 0.894532
5 1 1.1466 0.0454669 1.5917
6 1 2.14551 0.808392 12.238
7 1 1.17684 0.765327 2.31654
8 1 1.73531 0.255884 0.809664
9 1 2.27643 0.338724 1.65701
10 1 2.78008 1.59293 0.725781
11 1 2.26926 0.907872 2.56158
12 1 2.80196 0.416768 0.737339
13 1 3.3491 0.360789 1.54743
14 1 3.94002 0.846966 0.0313874
15 1 3.39373 0.954144 2.46126
16 1 3.84732 0.34185 0.69616
17 1 13.3324 0.954095 1.63848
18 1 0.605775 1.62867 0.09292
19 1 13.3869 1.75586 2.31902
20 1 0.505079 1.30977 0.915033
21 1 1.17939 1.26295 1.58343
22 1 1.70007 1.94576 12.8635
23 1 1.13403 1.88007 2.39178
24 1 1.66867 1.56484 0.811954
25 1 2.22712 1.38557 1.63309
26 1 2.81956 2.17767 12.9082
27 1 2.20556 2.05889 2.34474
28 1 3.30515 2.0446 2.39993
29 1 3.97386 1.56234 0.785079
30 1 4.0189 1.98546 0.00755061
31 1 5.18404 1.8441 3.28761
32 1 5.10323 1.36571 0.785741
33 1 13.3944 2.19944 1.41318
34 1 0.485138 2.88342 12.9421
35 1 0.0995094 2.85064 2.31296
36 1 0.713304 2.41569 0.803416
37 1 1.77032 2.59686 0.790677
38 1 1.65163 3.07501 12.8284
39 1 1.16553 3.11398 2.50773
40 1 2.23478 2.66118 1.6243
41 1 2.90405 2.56469 0.908929
42 1 2.86993 3.16145 12.8622
43 1 2.27569 3.25802 2.37519
44 1 3.50833 2.61397 1.556
45 1 3.33642 1.43367 1.62219
46 1 3.89787 3.19784 12.9345
47 1 2.87298 3.26496 3.34387
48 1 3.99592 2.71728 0.787022
49 1 0.00824002 3.35 1.57468
50 1 0.638229 3.55942 0.765929
51 1 0.108638 3.97524 2.35118
52 1 1.13714 3.64383 1.58589
53 1 1.16745 2.46386 1.69482
54 1 1.61439 4.29023 12.9492
55 1 1.01136 4.22842 2.4168
56 1 1.7455 3.56221 0.67257
57 1 2.17847 3.89263 1.54473
58 1 2.80392 4.30383 12.9465
59 1 2.18885 4.28476 2.53745
60 1 2.75869 3.60274 0.80999
61 1 3.29371 3.71884 1.6878
62 1 4.02859 4.2368 12.8559
63 1 3.61239 4.25064 2.41959
64 1 3.90488 3.80953 0.840448
65 1 0.720227 0.694453 3.08859
66 1 0.654645 0.115495 4.04355
67 1 1.68921 1.00331 3.18089
68 1 1.71222 0.375893 4.03801
69 1 2.86998 0.916495 3.30772
70 1 2.83366 0.370276 4.09699
71 1 3.95353 0.86092 3.27245
72 1 4.00131 0.309462 4.03691
73 1 0.483622 1.79752 3.09805
74 1 0.665042 1.26297 3.86718
75 1 1.70025 2.10759 3.25205
76 1 1.72804 1.40255 4.0562
77 1 2.75884 2.11231 3.095
78 1 2.72569 1.67587 3.96563
79 1 4.03531 2.6793 3.99743
80 1 4.36938 1.88724 2.53592
81 1 0.591359 2.87732 3.16403
82 1 0.683447 2.40158 3.87446
83 1 1.74081 3.07725 3.23674
84 1 1.7743 2.63051 4.12627
85 1 2.89067 2.68532 3.98896
86 1 3.38649 2.71214 4.79166
87 1 3.37179 3.1395 2.47647
88 1 4.44703 2.46046 4.95357
89 1 0.554469 4.07711 3.40561
90 1 0.624486 3.47844 4.09379
91 1 1.58276 4.16517 3.17711
92 1 1.74079 3.67225 4.16124
93 1 2.89054 4.3455 3.06155
94 1 2.71377 4.00114 3.97431
95 1 4.00546 4.39797 3.25703
96 1 3.97625 3.23072 3.22637
97 1 4.51186 0.360313 1.54261
98 1 5.0419 0.893806 12.8625
99 1 4.56149 0.897355 2.45123
100 1 5.12082 0.324545 0.74867
101 1 5.57855 0.0996348 1.66453
102 1 6.21052 0.694063 12.9076
103 1 5.72251 0.721607 2.32333
104 1 6.21066 0.107947 0.829289
105 1 6.71399 0.0582321 1.5944
106 1 7.3208 0.445594 0.0404314
107 1 6.74725 0.56129 2.37458
108 1 7.83748 13.214 1.68625
109 1 7.37588 13.3007 0.792986
110 1 7.84501 0.356407 12.0502
111 1 7.89476 0.376816 2.49079
112 1 8.36663 13.1058 0.843162
113 1 4.37279 1.36891 1.52847
114 1 5.07344 2.04309 12.8938
115 1 3.9771 2.06809 3.29353
116 1 5.54468 1.32696 1.66778
117 1 6.13498 1.16419 0.972779
118 1 6.05984 2.26598 0.803172
119 1 5.68715 1.80038 2.36794
120 1 6.08595 1.59292 12.9162
121 1 6.97303 1.18283 1.53019
122 1 7.12428 1.60846 12.877
123 1 6.71575 1.67915 2.41816
124 1 7.33384 0.991353 0.666642
125 1 7.91389 0.867796 1.58575
126 1 8.92351 1.33993 12.1303
127 1 7.81759 1.44211 2.50387
128 1 8.48875 0.886872 0.615245
129 1 4.60615 2.43208 1.79231
130 1 4.92179 3.0455 12.9023
131 1 4.60283 3.05084 2.46392
132 1 4.97742 2.48962 0.870304
133 1 5.65223 2.49877 1.57656
134 1 6.17073 2.75729 12.9506
135 1 5.72626 2.99288 2.38296
136 1 6.75566 2.2681 1.52214
137 1 7.90915 2.6114 2.40899
138 1 7.83342 2.54418 12.1818
139 1 6.75346 2.83658 2.38301
140 1 7.29795 2.0878 0.707969
141 1 7.85923 1.93758 1.71517
142 1 8.51962 2.56902 0.0591292
143 1 7.79743 3.09364 1.54021
144 1 8.43266 1.89668 0.768214
145 1 4.43759 3.55157 1.55561
146 1 5.04934 4.13462 12.9308
147 1 4.62327 4.10775 2.31323
148 1 5.09901 3.54245 0.863541
149 1 5.67616 3.55828 1.66512
150 1 6.1881 3.95114 12.8895
151 1 5.65189 4.12523 2.41366
152 1 6.0655 3.43203 0.755893
153 1 7.22831 3.72431 12.9056
154 1 6.7662 3.8187 11.963
155 1 6.76707 3.45395 1.46479
156 1 7.19743 3.12533 0.773585
157 1 7.82372 3.70223 2.36558
158 1 8.40598 3.57581 0.136638
159 1 8.36467 3.6038 3.19812
160 1 8.39654 2.98851 0.920655
161 1 5.11641 0.819526 3.22374
162 1 5.1528 0.277484 4.08599
163 1 6.16675 0.8091 3.2846
164 1 6.22342 0.160528 4.03819
165 1 7.25974 0.384693 3.14907
166 1 7.21317 13.3446 3.96468
167 1 8.47874 0.295324 3.22234
168 1 8.21633 13.212 4.08972
169 1 5.03212 1.33158 4.16222
170 1 4.4507 1.36471 4.9105
171 1 6.16319 1.83642 3.19895
172 1 6.26847 1.29239 4.16916
173 1 7.30702 1.57887 3.23572
174 1 7.32235 0.985989 4.04864
175 1 8.50277 1.41705 3.20842
176 1 8.36797 0.878622 4.02341
177 1 5.14162 2.94289 3.12901
178 1 4.99489 2.49791 4.02163
179 1 6.09473 2.91871 3.39699
180 1 6.1287 2.23968 4.0951
181 1 7.2433 2.64044 3.20728
182 1 7.25449 2.14745 3.99077
183 1 8.43997 2.53074 3.257
184 1 8.46252 2.00225 4.05802
185 1 5.06556 3.56853 4.04453
186 1 4.4209 3.60973 4.75182
187 1 6.70678 3.83631 2.47921
188 1 6.21474 3.42879 4.0684
189 1 7.25161 3.82246 3.15735
190 1 7.45922 3.27769 4.12817
191 1 8.45154 4.7257 3.27535
192 1 7.94699 3.21023 4.882
193 1 9.03542 13.2334 1.53306
194 1 8.94747 0.244802 12.0827
195 1 9.02374 0.235686 2.50423
196 1 9.57728 12.9964 0.711026
197 1 10.1189 12.9798 1.522
198 1 10.8167 0.397289 12.8773
199 1 10.1086 0.225855 2.44848
200 1 10.5863 13.2138 0.614252
201 1 11.0817 13.1515 1.49036
202 1 11.1726 0.149598 12.0167
203 1 11.2802 0.323137 2.46207
204 1 11.6729 13.1407 0.86053
205 1 12.2797 13.3699 1.51889
206 1 11.8835 0.265063 12.9187
207 1 12.3597 0.524761 2.46215
208 1 12.8994 12.8154 0.112036
209 1 8.87888 0.761026 1.51242
210 1 9.54554 2.3827 0.168121
211 1 9.0604 1.34031 2.43825
212 1 9.5691 0.202972 12.8694
213 1 10.0213 0.713304 1.58753
214 1 10.6818 1.77872 0.905486
215 1 10.1218 1.28887 2.35413
216 1 10.6137 0.832528 0.785693
217 1 11.1237 0.797495 1.58929
218 1 11.739 1.36294 12.9288
219 1 11.199 1.49448 2.32858
220 1 11.7879 0.920509 0.798416
221 1 12.2454 1.03108 1.58757
222 1 12.9126 0.521931 12.7913
223 1 12.1785 1.50622 2.42723
224 1 12.8927 0.180824 0.750269
225 1 8.96484 1.87829 1.66855
226 1 8.96335 2.42748 12.1145
227 1 8.97397 2.45967 2.4475
228 1 9.61023 1.82342 0.791485
229 1 10.0537 1.9715 1.67178
230 1 10.1327 2.33661 12.3569
231 1 10.2065 2.55538 2.51448
232 1 10.6801 2.84309 0.885375
233 1 11.3847 2.06443 1.66157
234 1 11.9903 2.62152 12.9467
235 1 11.2538 2.59297 2.33492
236 1 11.7846 2.03773 0.689598
237 1 12.4679 2.14827 1.36982
238 1 12.8805 1.73383 12.8915
239 1 12.3982 2.53571 2.34925
240 1 12.9088 1.18255 0.623547
241 1 9.06694 3.03748 1.69353
242 1 9.53946 3.65966 12.9455
243 1 9.0189 3.5971 2.39707
244 1 9.58841 3.08173 0.755659
245 1 10.103 3.03423 1.67519
246 1 10.6908 3.36201 0.112142
247 1 10.129 3.62963 2.40441
248 1 10.8598 2.3448 0.0241557
249 1 11.1838 3.24716 1.65597
250 1 11.793 3.71458 0.0126878
251 1 11.1484 3.66134 2.48417
252 1 11.7353 3.22489 0.900673
253 1 12.4421 3.18867 1.5234
254 1 12.963 3.42717 0.464864
255 1 12.2886 3.67834 2.26411
256 1 13.0226 2.54693 0.471723
257 1 9.57958 0.114254 3.33998
258 1 9.43626 12.9863 4.04545
259 1 10.6661 0.225319 3.1914
260 1 10.6632 13.0863 4.03246
261 1 11.7438 0.290753 3.19464
262 1 11.8148 13.3115 4.06799
263 1 12.9393 0.578569 3.18858
264 1 12.8812 0.0953825 4.08006
265 1 9.61239 1.30692 3.24306
266 1 9.52872 0.838324 3.99116
267 1 10.8113 1.2569 3.28825
268 1 10.6712 0.69696 4.06756
269 1 11.7794 1.44888 3.29302
270 1 11.9468 1.08622 4.08827
271 1 12.8098 1.61587 3.24143
272 1 13.1286 1.1033 4.02761
273 1 9.52656 2.39261 3.24909
274 1 9.69005 1.92848 4.12599
275 1 10.7805 2.26696 3.27467
276 1 10.6946 1.76459 4.08642
277 1 11.8052 2.51299 3.14504
278 1 11.879 2.12237 4.05953
279 1 12.9324 2.83073 3.07787
280 1 12.9463 2.33322 3.86238
281 1 9.45926 3.54515 3.23769
282 1 9.65963 3.04453 4.05557
283 1 10.6001 3.48068 3.31334
284 1 10.6921 2.94756 4.06572
285 1 11.8669 3.69034 3.10085
286 1 11.8412 3.09581 3.91404
287 1 12.9569 3.87132 3.09076
288 1 12.9017 3.42246 4.031
289 1 13.3742 4.47274 1.61325
290 1 0.664765 5.06424 12.9197
291 1 0.158077 5.15492 2.51514
292 1 0.561718 4.58403 0.88206
293 1 1.20465 4.66229 1.56202
294 1 1.76541 5.36331 0.0163171
295 1 1.23257 5.26226 2.42199
296 1 1.78254 4.73755 0.775156
297 1 2.37867 4.88968 1.63839
298 1 2.85355 5.41607 0.0640259
299 1 2.29648 5.49746 2.48116
300 1 2.92262 4.78394 0.729382
301 1 3.31261 4.88942 1.72878
302 1 3.95456 5.38466 12.8969
303 1 3.51112 5.52057 2.29465
304 1 3.98575 4.82809 0.85703
305 1 13.4352 5.48559 1.59939
306 1 0.533265 6.30596 0.00123679
307 1 13.2194 6.07054 2.37025
308 1 0.568396 5.73639 0.673338
309 1 1.00418 5.77779 1.57071
310 1 1.69206 6.45661 12.9489
311 1 1.22171 6.37924 2.55546
312 1 1.70713 5.86011 0.888682
313 1 2.17279 5.89861 1.6418
314 1 2.79358 6.42826 0.0619533
315 1 2.33216 6.52012 2.33544
316 1 2.79551 5.91418 0.9267
317 1 3.35873 6.04349 1.55133
318 1 3.87973 6.46287 0.0698134
319 1 3.35717 6.65129 2.45247
320 1 4.03711 5.83964 0.834316
321 1 0.157268 6.67813 1.70994
322 1 0.58622 7.31941 12.8575
323 1 0.00301114 7.42003 2.32
324 1 0.590992 6.93018 0.774215
325 1 1.16182 6.83078 1.66103
326 1 1.61982 7.62922 0.0385536
327 1 1.0471 7.54193 2.403
328 1 1.65627 6.90753 0.765064
329 1 2.15912 7.11414 1.62812
330 1 2.75637 7.51512 12.8429
331 1 2.21008 7.6524 2.34307
332 1 2.77725 7.16412 0.815047
333 1 3.35766 7.13875 1.54096
334 1 3.89123 7.59989 12.8785
335 1 3.33879 7.59849 2.42851
336 1 3.99113 7.03585 0.790208
337 1 13.3835 7.83582 1.55906
338 1 0.448874 8.40009 0.122257
339 1 0.170596 8.57804 2.31131
340 1 0.589816 7.9005 0.857486
341 1 1.18617 7.99025 1.54454
342 1 1.56466 8.68181 0.0870789
343 1 1.15854 8.57876 2.43648
344 1 1.86533 8.03557 0.861605
345 1 2.36366 8.31479 1.61111
346 1 2.67975 8.79792 0.0104438
347 1 2.07195 8.8187 2.42202
348 1 2.91463 8.2194 0.681412
349 1 3.37387 8.24552 1.59479
350 1 4.01078 8.69378 12.9369
351 1 2.65654 10.0627 3.29794
352 1 3.8342 8.10734 0.804839
353 1 0.661481 5.31692 3.224
354 1 0.509335 4.69595 4.02807
355 1 1.75444 5.37399 3.33919
356 1 1.75174 4.67461 3.96753
357 1 2.94436 5.53391 3.22406
358 1 2.74712 4.94937 3.9744
359 1 3.96058 5.34521 3.24353
360 1 3.85039 4.91403 4.10716
361 1 0.459865 6.42103 2.96392
362 1 0.607241 5.89542 4.0132
363 1 1.7897 6.61571 3.31026
364 1 1.66397 5.98559 4.0506
365 1 2.84716 6.61039 3.277
366 1 2.92598 5.98291 4.14854
367 1 3.88156 6.50487 3.28074
368 1 4.04791 5.97422 4.12156
369 1 0.607379 7.42828 3.30631
370 1 0.59668 6.88882 4.00613
371 1 1.66221 7.61408 3.06153
372 1 1.6497 7.135 4.07691
373 1 2.79008 7.78043 3.15449
374 1 2.7914 7.1373 3.99085
375 1 4.89747 7.53683 3.17627
376 1 3.29711 7.10414 4.80988
377 1 0.477795 8.48371 3.28574
378 1 0.622758 8.12161 4.09193
379 1 1.46432 8.66701 3.37791
380 1 1.81366 8.07699 4.05905
381 1 3.85362 8.7183 3.13163
382 1 2.73582 8.28679 3.94862
383 1 3.86749 7.60026 3.28082
384 1 3.94266 8.27246 4.07132
385 1 4.50313 4.81318 1.70197
386 1 5.07368 5.15483 0.00274428
387 1 4.50512 5.3643 2.41158
388 1 5.04367 4.61969 0.872816
389 1 5.64315 5.18786 2.3995
390 1 6.28897 4.55047 0.762233
391 1 6.09408 5.15945 3.22269
392 1 5.69884 4.65054 1.48566
393 1 6.77946 4.52087 1.61685
394 1 6.72305 4.969 12.1094
395 1 6.78476 4.96349 2.36453
396 1 7.34087 4.27849 0.716721
397 1 7.8201 4.29245 1.66126
398 1 8.41574 4.65134 0.0394287
399 1 7.89899 4.8605 2.49507
400 1 8.39355 4.17173 0.770039
401 1 4.60909 5.96409 1.51742
402 1 5.03631 6.35897 0.0386473
403 1 4.49503 6.40693 2.63221
404 1 5.24836 5.77685 0.778869
405 1 5.6807 5.70765 1.63753
406 1 6.17034 6.13369 12.8813
407 1 6.16379 6.20444 3.2735
408 1 6.22057 5.68815 0.794719
409 1 6.74447 5.64554 1.68077
410 1 7.33231 5.41823 0.807473
411 1 6.70159 6.11336 2.53787
412 1 7.32391 4.89836 12.8632
413 1 7.95156 5.25707 1.44616
414 1 8.36693 5.83037 0.0246642
415 1 7.88162 5.915 2.35445
416 1 8.6294 5.22035 0.708991
417 1 4.45988 6.87195 1.68954
418 1 4.97232 7.50423 0.0591261
419 1 4.47379 7.61139 2.33154
420 1 4.99101 6.92653 0.879498
421 1 5.57311 6.30528 2.37147
422 1 6.18051 7.40632 0.15313
423 1 5.49486 6.93911 1.76388
424 1 6.0757 6.81308 0.750662
425 1 6.5815 6.71285 1.71179
426 1 7.31343 7.01142 0.0442446
427 1 6.73246 7.27086 2.58623
428 1 7.1567 6.64877 0.910393
429 1 7.69664 6.48123 1.61644
430 1 8.28261 6.42276 0.879941
431 1 7.82013 7.07791 2.4554
432 1 8.97187 6.31572 1.60866
433 1 4.46391 8.14458 1.57138
434 1 5.02185 8.63328 0.094369
435 1 4.38822 8.75136 2.38037
436 1 5.12408 7.99551 0.848638
437 1 5.54296 7.47271 2.47945
438 1 6.02812 8.43266 12.9158
439 1 5.63493 8.0175 1.52321
440 1 6.2943 8.04281 0.860321
441 1 6.58225 7.65733 1.77122
442 1 7.24765 8.18127 12.9029
443 1 6.64849 8.43531 2.41806
444 1 7.2174 7.80813 0.885422
445 1 7.77569 7.62945 1.6714
446 1 8.26731 7.58907 0.792099
447 1 7.66388 8.84687 1.79199
448 1 8.39544 6.96451 0.106257
449 1 5.06489 5.22329 3.16832
450 1 4.97393 4.08473 3.28022
451 1 6.25045 5.54146 4.16764
452 1 6.08415 4.02894 3.29987
453 1 7.26189 5.01639 3.17075
454 1 7.35966 4.31216 4.03161
455 1 8.34486 5.33158 4.04763
456 1 8.52204 3.06726 4.08096
457 1 5.09523 5.86289 3.91106
458 1 4.58989 5.30781 5.57279
459 1 6.35801 6.60363 4.03608
460 1 6.15945 7.28833 3.22681
461 1 7.3166 6.22123 3.1166
462 1 8.52392 5.92446 6.60057
463 1 8.44281 5.84267 3.27077
464 1 7.96168 5.88568 5.64067
465 1 5.01522 8.04893 4.03569
466 1 5.14791 6.46809 3.28898
467 1 6.09236 8.4 3.29154
468 1 5.16474 7.08226 4.06554
469 1 6.06827 7.80364 4.13421
470 1 7.31396 7.3256 3.33447
471 1 8.48412 7.0054 3.15701
472 1 8.44253 6.54551 3.99716
473 1 4.94121 8.60629 3.21264
474 1 4.5098 8.09333 4.79366
475 1 5.63937 8.13983 4.96012
476 1 6.72093 7.64363 4.92631
477 1 7.29171 8.39305 3.12968
478 1 6.69749 8.92137 4.88609
479 1 7.84927 8.3015 2.39811
480 1 8.39365 7.52789 4.04714
481 1 9.00271 4.16638 1.66409
482 1 9.64968 4.67552 12.893
483 1 8.93842 4.74841 2.56091
484 1 9.52192 4.15328 0.87587
485 1 10.2885 4.06627 1.38886
486 1 10.3247 4.58955 12.2764
487 1 10.0845 4.57896 2.40424
488 1 10.6576 4.22497 0.43312
489 1 11.271 4.21307 1.56884
490 1 11.7366 4.80494 0.051782
491 1 11.2456 4.78696 2.45737
492 1 11.8618 4.26516 0.800672
493 1 12.3918 4.43847 1.6725
494 1 12.8065 4.92706 12.8797
495 1 12.3041 4.86521 2.44928
496 1 12.9277 4.30652 0.682622
497 1 9.03013 5.21763 1.66109
498 1 9.50821 5.77679 12.9284
499 1 9.48516 5.82876 3.33171
500 1 9.6847 5.28389 0.780526
501 1 10.164 5.12682 1.73641
502 1 10.6272 5.72976 0.0762225
503 1 10.0198 5.70692 2.52751
504 1 10.7587 5.11497 0.758972
505 1 11.1812 5.25558 1.63389
506 1 11.8179 5.9764 0.0574952
507 1 11.2524 5.8801 2.50498
508 1 11.8271 5.31148 0.845766
509 1 12.291 5.50235 1.59551
510 1 12.8054 6.09084 12.9021
511 1 12.2516 6.01075 2.42889
512 1 12.9377 5.43908 0.625487
513 1 8.95541 5.78629 2.40631
514 1 9.48284 6.76464 0.0125677
515 1 8.89659 6.91807 2.41228
516 1 9.54541 6.38155 0.879157
517 1 10.2117 6.15653 1.66349
518 1 10.6108 6.76598 12.8554
519 1 10.012 6.7012 2.44662
520 1 10.6324 6.28816 0.818371
521 1 11.2672 6.3672 1.67897
522 1 11.6952 7.05205 12.8656
523 1 11.2663 7.0308 2.51918
524 1 11.6369 6.44644 0.772469
525 1 12.3471 6.68426 1.4558
526 1 12.9764 7.11846 0.0209548
527 1 12.4554 6.98782 2.41384
528 1 12.9392 6.54108 0.842534
529 1 8.86198 7.40175 1.60745
530 1 10.0687 7.9993 12.2965
531 1 8.47662 8.09893 3.23761
532 1 9.4793 7.4394 0.954338
533 1 10.1095 7.346 1.73096
534 1 10.5175 7.79585 0.0801203
535 1 9.8382 7.91774 2.43722
536 1 10.6222 7.37144 0.882863
537 1 11.1541 7.46226 1.59019
538 1 11.6347 8.07996 0.110248
539 1 11.0256 7.98165 2.42775
540 1 11.8179 7.59431 0.8207
541 1 12.2433 7.75303 1.73659
542 1 12.8623 8.32339 12.8975
543 1 12.2449 8.23349 2.45545
544 1 12.7816 7.77443 0.746156
545 1 9.51347 4.60291 3.22808
546 1 9.48444 4.18475 4.11808
547 1 10.6928 4.73486 3.25624
548 1 10.6756 4.15948 3.90101
549 1 11.8642 4.69893 3.32325
550 1 11.7715 4.20828 4.11979
551 1 12.8973 4.99423 3.1673
552 1 12.875 4.44637 4.02024
553 1 9.57515 6.37761 4.07114
554 1 9.56441 5.19514 4.06824
555 1 10.6844 5.76922 3.21484
556 1 10.6586 5.25324 4.10872
557 1 11.9073 5.88741 3.36467
558 1 11.7465 5.3437 4.05706
559 1 12.9504 6.07263 3.37484
560 1 13.0086 5.43091 4.16424
561 1 9.48862 8.07353 3.34754
562 1 9.54455 6.97534 3.27079
563 1 10.6358 6.97078 3.22494
564 1 10.5813 6.36033 3.92574
565 1 11.8642 6.97801 3.214
566 1 11.66 6.5974 4.03299
567 1 12.9961 7.22352 3.24538
568 1 12.9361 6.71323 4.10909
569 1 8.8937 8.09927 2.38919
570 1 8.96205 7.54814 4.97327
571 1 10.4927 8.01904 3.28665
572 1 10.6698 7.44334 4.07664
573 1 11.593 8.12167 3.18113
574 1 11.7931 7.6227 3.9787
575 1 12.8687 8.29736 3.04774
576 1 12.7799 7.94076 3.94224
577 1 13.2642 8.98975 1.62906
578 1 0.564316 9.4901 0.107112
579 1 0.0288111 9.67758 2.4988
580 1 0.443949 9.01042 0.912581
581 1 1.05358 9.16756 1.61237
582 1 1.5887 9.84222 0.0279582
583 1 1.26222 9.69897 2.54787
584 1 1.74424 9.07257 0.843935
585 1 2.18952 9.34315 1.67877
586 1 2.75922 9.80384 0.118483
587 1 2.33018 9.9611 2.33588
588 1 2.79065 9.38562 0.808553
589 1 3.29481 9.32681 1.58849
590 1 3.89292 9.91213 0.0930303
591 1 3.28552 8.69695 2.4403
592 1 3.98668 9.26239 0.712452
593 1 0.0615622 10.0753 1.60022
594 1 0.587388 10.8563 12.8212
595 1 13.3608 10.6827 2.33289
596 1 0.437297 10.2137 0.665596
597 1 1.00738 10.143 1.58634
598 1 1.67038 10.9097 12.908
599 1 1.08794 10.7184 2.4535
600 1 1.6489 10.2181 0.782162
601 1 2.10231 10.4081 1.50059
602 1 2.92392 10.9741 0.00317904
603 1 2.22017 10.9796 2.31095
604 1 2.81275 10.6002 0.769344
605 1 3.30682 10.3941 1.56812
606 1 3.91003 10.9794 12.8501
607 1 3.22712 10.9472 2.43672
608 1 3.9978 10.4955 0.814297
609 1 0.00821266 11.2398 1.54811
610 1 0.401973 11.9307 12.8925
611 1 13.3642 11.7477 2.39519
612 1 0.55904 11.2304 0.783496
613 1 1.07637 11.2324 1.6567
614 1 2.1049 11.9733 12.2241
615 1 1.03122 11.8367 2.35572
616 1 1.55136 11.4214 0.775853
617 1 2.1975 11.5234 1.5954
618 1 2.72598 12.7266 0.790878
619 1 2.07311 12.0636 2.42603
620 1 2.80115 11.6498 0.786825
621 1 3.40993 11.5103 1.65322
622 1 3.80268 12.1594 12.9072
623 1 3.24353 12.2021 2.31024
624 1 3.86054 11.6834 0.821911
625 1 13.3458 12.4025 1.58121
626 1 0.423653 13.0272 0.0122105
627 1 0.108387 12.8777 2.48804
628 1 0.519433 12.3857 0.781472
629 1 1.09935 12.4128 1.5961
630 1 1.70995 0.876943 0.137567
631 1 1.04127 13.0467 2.43201
632 1 1.69206 12.5816 0.864194
633 1 2.20036 12.6489 1.64919
634 1 1.64265 13.2044 12.8891
635 1 2.20714 13.2334 2.44622
636 1 2.80162 13.1909 12.9414
637 1 3.35725 12.6703 1.55577
638 1 3.89278 13.1516 12.9083
639 1 3.28363 13.2965 2.35197
640 1 3.98747 12.7822 0.76891
641 1 0.621033 9.67186 3.11352
642 1 0.537632 9.19108 4.02233
643 1 1.7725 9.82148 3.33735
644 1 1.71067 9.26282 4.03507
645 1 2.74781 8.87187 3.1845
646 1 2.8052 9.29036 4.03751
647 1 3.31535 9.79188 2.37641
648 1 3.79638 9.78435 3.24094
649 1 0.412164 10.8668 3.14862
650 1 0.558691 10.2339 4.0314
651 1 1.58202 10.9575 3.2807
652 1 1.45032 10.368 4.25664
653 1 2.5856 11.2049 3.37552
654 1 2.77703 10.5537 4.04694
655 1 3.74104 10.9764 3.10536
656 1 3.84841 10.3761 4.07688
657 1 0.388766 11.9024 3.27305
658 1 0.461217 11.2747 4.0833
659 1 1.47696 12.0246 3.15076
660 1 1.69396 11.5152 4.02636
661 1 2.75454 12.0897 3.01541
662 1 2.86356 11.6691 4.16868
663 1 3.84561 12.0727 3.16447
664 1 3.7973 11.552 3.92026
665 1 0.500891 13.0278 3.28095
666 1 0.578261 12.4268 4.06471
667 1 1.69585 13.1443 3.24103
668 1 1.70874 12.5722 3.92106
669 1 2.90567 13.2498 3.2517
670 1 2.80068 12.6072 3.91639
671 1 3.83934 13.1917 3.33448
672 1 3.93267 12.6143 4.08159
673 1 4.39715 9.25251 1.56151
674 1 5.05532 9.70783 12.8528
675 1 4.41075 9.8636 2.44928
676 1 5.18126 9.26766 0.868963
677 1 5.51924 9.09879 1.71592
678 1 6.18361 10.8032 0.0303654
679 1 5.55068 9.78265 2.45523
680 1 6.23612 9.09166 0.763861
681 1 6.54945 8.9756 1.69101
682 1 7.30409 9.34053 0.0287856
683 1 6.63994 9.56458 2.49691
684 1 7.25566 8.89517 0.865295
685 1 8.33704 8.79209 1.01538
686 1 8.45754 9.26443 0.0767901
687 1 7.77636 9.88999 1.62479
688 1 8.32054 8.25459 0.14983
689 1 4.39394 10.3744 1.70371
690 1 4.97784 10.8827 0.0446765
691 1 4.44048 10.9476 2.4943
692 1 5.01932 10.2156 0.769891
693 1 5.45444 10.2761 1.6882
694 1 5.45816 10.8344 12.1752
695 1 5.67804 10.845 2.59825
696 1 6.19458 9.63064 12.8712
697 1 6.06926 10.2027 0.807062
698 1 7.26257 10.4455 12.9268
699 1 6.66191 10.71 2.52365
700 1 6.5844 10.0847 1.68104
701 1 7.1273 9.99073 0.869167
702 1 8.43211 10.3233 0.0718964
703 1 7.81524 10.5277 2.41899
704 1 8.32764 9.86939 0.825545
705 1 4.44006 11.5815 1.75116
706 1 4.91933 11.9264 0.0568375
707 1 4.43161 12.1953 2.43965
708 1 4.88637 11.4417 0.863661
709 1 5.51163 11.3067 1.6029
710 1 6.01598 11.8111 12.9138
711 1 5.56037 11.97 2.42066
712 1 6.16787 11.2268 0.989217
713 1 6.65897 11.2057 1.72238
714 1 7.28249 11.5607 0.0439648
715 1 6.71253 11.8001 2.45583
716 1 7.21923 11.0842 0.918557
717 1 7.82725 10.97 1.63465
718 1 8.30251 11.583 0.0582595
719 1 7.75713 11.6014 2.56084
720 1 8.40927 10.9585 0.793402
721 1 4.49279 12.7413 1.56274
722 1 5.00539 13.1252 0.0367532
723 1 4.33005 13.2615 2.40358
724 1 5.05632 12.4363 0.821846
725 1 5.61693 12.5844 1.63788
726 1 6.1137 12.9694 0.123799
727 1 5.50825 13.1016 2.55166
728 1 6.07254 12.2329 0.807792
729 1 6.63165 12.4075 1.6055
730 1 7.28497 12.802 0.00934295
731 1 6.73105 12.8999 2.50001
732 1 7.13131 12.2759 0.771176
733 1 7.70787 12.1078 1.65043
734 1 8.46306 12.5352 12.9509
735 1 7.88135 12.7436 2.42327
736 1 8.32519 11.9983 0.961607
737 1 4.99583 9.64854 3.26982
738 1 4.91381 9.23445 4.03417
739 1 6.10029 9.44691 3.27718
740 1 6.19951 8.86272 4.05863
741 1 7.73663 9.55365 2.49695
742 1 7.24214 8.77685 4.17302
743 1 8.50815 9.21587 3.32043
744 1 8.84699 8.60241 4.84217
745 1 4.91267 10.8537 3.1602
746 1 4.91607 10.4598 4.0542
747 1 6.07693 10.6607 3.42014
748 1 6.13431 10.1041 4.0993
749 1 7.19213 10.5192 3.31931
750 1 7.23795 9.92823 3.99015
751 1 8.27108 10.4385 3.23843
752 1 8.26686 9.83063 4.12463
753 1 4.95931 12.0148 3.29042
754 1 5.06891 11.4336 3.97477
755 1 6.10994 11.8421 3.24926
756 1 6.15088 11.3347 4.0963
757 1 7.20126 11.6481 3.36111
758 1 7.31336 11.0856 4.06717
759 1 8.36085 11.5194 3.1836
760 1 8.3393 10.9156 4.10401
761 1 4.89974 13.1645 3.24212
762 1 5.10522 12.6701 3.92645
763 1 6.16186 13.1467 3.14692
764 1 6.18211 12.5327 3.92271
765 1 7.31607 12.6816 3.2212
766 1 7.29091 12.2259 4.18908
767 1 8.38484 12.5801 3.29596
768 1 8.47651 12.0288 4.07501
769 1 9.04715 8.54942 1.58267
770 1 9.56797 8.54012 0.812028
771 1 8.92329 9.19382 2.499
772 1 9.60327 9.17379 0.0706497
773 1 10.1544 8.57534 1.62754
774 1 10.0835 9.04221 12.2563
775 1 10.0089 9.09545 2.43494
776 1 10.6215 8.52928 0.799676
777 1 11.2176 8.6308 1.61571
778 1 11.7112 9.33486 12.9326
779 1 11.1476 8.97247 2.4576
780 1 11.7442 8.70368 0.796099
781 1 12.2654 8.83485 1.62274
782 1 12.8295 9.39621 12.8614
783 1 12.3373 9.38796 2.36808
784 1 12.7548 8.83553 0.743578
785 1 8.79204 9.74873 1.64182
786 1 9.50852 10.2453 0.0881144
787 1 8.85479 10.2773 2.50018
788 1 9.48158 9.67149 0.935776
789 1 10.0606 9.71973 1.67929
790 1 10.6631 9.71183 0.900606
791 1 9.93496 10.2766 2.4445
792 1 10.6489 9.13801 0.167941
793 1 11.1457 9.66816 1.70451
794 1 11.5992 10.4292 0.0565701
795 1 11.1332 10.2449 2.41129
796 1 11.7519 9.84394 0.786622
797 1 12.2605 9.87432 1.63816
798 1 12.8342 10.6179 0.0116284
799 1 12.3248 10.5014 2.44422
800 1 12.7666 9.95247 0.741808
801 1 8.92183 10.862 1.63374
802 1 9.40296 11.3651 12.9079
803 1 8.87339 11.4792 2.34439
804 1 9.41977 10.8431 0.909423
805 1 10.1162 10.9071 1.745
806 1 10.4051 11.4761 12.9324
807 1 9.99887 11.4827 2.47577
808 1 10.5035 10.8768 0.905744
809 1 11.1847 10.7531 1.63264
810 1 11.6942 11.528 0.0499348
811 1 11.1574 11.422 2.34179
812 1 11.6994 11.0002 0.77919
813 1 12.2523 11.0423 1.60423
814 1 12.8103 11.6178 0.0113907
815 1 12.1646 11.6129 2.44064
816 1 12.8148 11.0818 0.796759
817 1 8.95718 12.0205 1.65865
818 1 9.47893 12.5736 12.8815
819 1 8.93043 12.602 2.42035
820 1 9.37594 11.8838 0.737227
821 1 9.97881 12.0014 1.53018
822 1 10.613 12.6382 12.909
823 1 10.1398 12.6141 2.42761
824 1 10.5744 11.9474 0.739165
825 1 11.045 12.0867 1.63063
826 1 13.2593 12.9634 12.0815
827 1 11.2735 12.6538 2.48057
828 1 11.6522 12.0389 0.847579
829 1 12.3963 12.111 1.61017
830 1 11.6879 12.6689 0.0759218
831 1 12.343 12.8716 2.2216
832 1 12.7655 12.2967 0.780743
833 1 9.61741 9.1364 3.2542
834 1 10.2253 8.61204 4.71973
835 1 10.5504 9.44045 3.21487
836 1 10.6712 8.72344 3.92855
837 1 11.7366 9.33741 3.26178
838 1 11.6816 8.70558 3.9016
839 1 12.8432 9.4272 3.20729
840 1 12.9715 8.94443 3.94168
841 1 9.41395 10.4109 3.31197
842 1 9.50023 9.84023 3.98486
843 1 10.5863 10.3871 3.20585
844 1 10.6502 9.80556 4.09375
845 1 11.6954 10.4536 3.16099
846 1 11.7228 9.94038 4.00476
847 1 12.8836 10.6023 3.27063
848 1 12.9266 10.0228 3.97134
849 1 9.4225 11.4216 3.14894
850 1 9.45919 11.028 4.1237
851 1 10.6489 11.4452 3.15007
852 1 10.5217 10.9397 4.08276
853 1 11.6924 11.568 3.33311
854 1 11.5936 10.9762 4.09597
855 1 12.7673 11.9586 3.17161
856 1 12.7614 11.2258 3.89524
857 1 9.47025 12.4567 3.09579
858 1 9.58641 11.998 3.99341
859 1 10.6304 12.5849 3.18148
860 1 10.5302 12.0091 4.01525
861 1 11.8058 12.6473 3.32036
862 1 11.7416 12.169 4.08261
863 1 12.844 12.9487 3.10199
864 1 12.9143 12.43 4.02223
865 1 0.041045 0.0717553 4.8773
866 1 13.4323 0.661138 5.60938
867 1 1.14479 0.318056 4.81472
868 1 1.21087 0.770275 5.69325
869 1 2.22235 0.355286 4.85339
870 1 2.29952 0.843421 5.66063
871 1 3.33524 0.451904 4.83062
872 1 3.36198 0.98096 5.64843
873 1 0.189484 1.33063 4.77548
874 1 13.4117 1.70873 5.76429
875 1 1.15985 1.38788 4.92726
876 1 1.18568 1.91255 5.77387
877 1 2.36096 1.44969 4.81947
878 1 2.28558 2.08956 5.59714
879 1 3.37398 1.54234 4.8304
880 1 3.4128 2.09902 5.56196
881 1 0.0294647 2.36896 4.77833
882 1 0.167364 2.77572 5.69379
883 1 1.09927 2.34779 4.72348
884 1 1.12585 2.92431 5.61279
885 1 2.32255 2.64787 4.80758
886 1 2.23283 3.06812 5.67663
887 1 3.45723 3.24663 5.77623
888 1 4.12484 3.08021 6.4484
889 1 0.00942315 3.35232 4.82764
890 1 13.4207 3.83725 5.73035
891 1 1.06861 3.60267 5.00723
892 1 1.15794 4.19908 5.75683
893 1 2.18463 3.70453 4.90706
894 1 2.22204 4.35288 5.62878
895 1 3.1928 3.79353 4.9082
896 1 3.4129 4.32065 5.68265
897 1 13.3347 0.07073 8.07704
898 1 0.507681 0.630611 6.38592
899 1 0.540849 0.0764267 7.33123
900 1 1.04861 0.225729 8.12409
901 1 1.65209 0.605296 6.59223
902 1 1.6506 0.221184 7.39696
903 1 2.27352 0.383811 8.08415
904 1 2.73977 1.00415 6.43685
905 1 2.81137 0.443485 7.24907
906 1 3.35693 0.478751 8.18736
907 1 3.94333 1.01305 6.44174
908 1 3.82038 0.42785 7.09044
909 1 0.15191 1.22099 8.1409
910 1 0.543478 1.78424 6.40875
911 1 0.647215 1.21037 7.17462
912 1 1.16882 1.33533 8.11066
913 1 1.8266 1.93132 6.43809
914 1 1.64667 1.41286 7.14188
915 1 2.19812 1.5256 8.10038
916 1 2.9152 1.97199 6.50193
917 1 2.7578 1.42279 7.34929
918 1 3.3327 1.05647 8.92214
919 1 3.93773 2.55025 7.27713
920 1 4.06038 1.4559 7.35942
921 1 0.103394 2.45525 8.02768
922 1 0.625396 2.96133 6.64211
923 1 0.839082 2.30635 7.30855
924 1 1.24424 2.43227 8.16081
925 1 1.6347 3.10295 6.51741
926 1 1.79809 2.5124 7.19914
927 1 2.2598 2.65551 8.04064
928 1 2.86661 3.2416 6.46025
929 1 2.84656 2.65357 7.15002
930 1 3.37612 2.23033 8.9551
931 1 3.49296 3.72045 8.02589
932 1 3.31436 2.61436 8.16915
933 1 0.0389622 3.46176 8.14102
934 1 0.671749 4.05397 6.50256
935 1 0.52186 3.50435 7.32522
936 1 1.11999 3.56516 8.00229
937 1 1.89398 4.09738 6.4527
938 1 1.70523 3.71117 7.35403
939 1 2.35109 3.67254 8.01547
940 1 2.8997 4.43704 6.48144
941 1 2.8262 3.7842 7.31529
942 1 3.32737 4.45012 8.94855
943 1 4.41836 4.21409 5.62452
944 1 3.9906 2.01706 6.47188
945 1 4.44746 0.293819 4.8617
946 1 4.52187 0.823513 5.70424
947 1 5.62722 0.0756655 4.8888
948 1 5.56308 0.554711 5.68546
949 1 6.73582 13.4019 4.89197
950 1 6.67351 0.412256 5.69277
951 1 7.88253 13.1116 4.89314
952 1 7.96864 0.354712 5.7141
953 1 3.89884 1.49987 4.02398
954 1 3.76094 3.75155 4.16453
955 1 5.6143 1.24253 4.89008
956 1 5.64196 1.80088 5.63767
957 1 6.78786 1.08197 4.92605
958 1 6.80101 2.79367 5.74645
959 1 7.86228 0.820433 4.97664
960 1 8.08518 1.54938 5.62908
961 1 4.65131 1.91955 5.74298
962 1 5.10034 3.54532 7.42169
963 1 5.56931 2.47829 4.80725
964 1 5.14377 3.19666 6.40298
965 1 6.73295 2.31747 4.87121
966 1 6.61005 3.80573 5.73664
967 1 7.79628 1.9164 4.7466
968 1 7.89055 2.66437 5.59333
969 1 5.58125 3.50888 4.90749
970 1 3.9676 4.32939 6.58542
971 1 5.06224 4.76139 4.08274
972 1 5.64234 4.6904 4.74955
973 1 6.80077 3.29387 4.8487
974 1 6.69732 4.34461 4.88103
975 1 7.7993 3.81225 5.70112
976 1 8.38414 3.58238 6.47329
977 1 4.3639 0.266135 8.08574
978 1 5.13929 0.837481 6.49483
979 1 5.03832 0.271138 7.3259
980 1 5.6237 0.231348 8.0517
981 1 6.27361 0.657818 6.44348
982 1 6.22817 0.185413 7.29094
983 1 6.68184 12.8938 9.03245
984 1 7.31872 0.524533 6.37368
985 1 6.77986 13.2814 8.05735
986 1 7.81012 13.126 8.1928
987 1 8.54534 0.308098 6.54946
988 1 8.39791 13.1793 7.30381
989 1 4.49421 1.3883 8.12312
990 1 5.06934 2.11113 6.54641
991 1 5.08194 1.32403 7.21913
992 1 5.52956 1.31857 8.13523