data.lammps (converted from cfg to data.lammps)
    
2298  atoms
1  atom types
0.0   13.4375  xlo xhi
0.0   13.4375  ylo yhi
0.0   12.952  zlo zhi
0.0  0.0 0.0 xy xz yz
    
    
    
Atoms
  
1 1 0.0380097 13.0831 1.72107
2 1 0.58958 0.16231 12.7818
3 1 0.117236 0.730676 1.63567
4 1 1.08818 13.311 1.57597
5 1 1.67693 13.2737 0.831955
6 1 2.28947 0.5948 12.2236
7 1 1.20703 0.37354 2.48136
8 1 1.75408 0.989715 0.803777
9 1 2.24142 13.4002 1.71396
10 1 2.70474 1.04522 0.849518
11 1 2.26265 0.425204 2.50385
12 1 2.75552 0.038059 0.875547
13 1 3.39171 0.209692 1.74655
14 1 3.88735 0.949595 0.124875
15 1 3.53584 0.766943 2.58107
16 1 3.84011 0.0932619 0.804001
17 1 12.9348 0.870896 1.01546
18 1 1.18891 2.09221 11.345
19 1 0.10744 1.26721 2.4392
20 1 0.572717 0.716066 0.70529
21 1 1.19621 0.82297 1.55012
22 1 0.467371 1.34629 0.153319
23 1 0.989398 1.84926 1.56767
24 1 1.4796 1.57344 12.9155
25 1 2.24 1.05978 1.78534
26 1 2.19561 1.70027 12.295
27 1 2.36066 1.69259 2.3773
28 1 2.88701 1.69312 3.20333
29 1 3.24321 1.25754 1.73947
30 1 3.8584 1.25087 0.951674
31 1 4.96968 2.02676 3.18218
32 1 5.66245 1.36979 1.78343
33 1 12.8464 1.98821 0.882145
34 1 0.603023 2.59492 0.0252499
35 1 13.4118 2.45861 2.57667
36 1 13.3813 1.93882 1.67833
37 1 2.21958 2.21193 1.50154
38 1 1.70465 2.68563 0.0674861
39 1 1.06714 2.46964 2.24171
40 1 2.77283 2.23419 0.746413
41 1 2.81528 1.6981 12.9494
42 1 2.79559 2.91693 12.9464
43 1 2.21011 2.73432 2.38497
44 1 3.38038 2.48329 1.54631
45 1 3.41822 1.96441 2.27814
46 1 3.96147 2.92001 0.137943
47 1 2.89042 2.80743 3.34037
48 1 3.9952 2.23623 0.89606
49 1 0.0354264 2.98428 1.60509
50 1 0.596888 3.12625 0.820906
51 1 0.0480317 3.57949 2.34096
52 1 1.12443 3.15369 1.58284
53 1 0.528291 2.07081 0.773453
54 1 1.55824 3.79699 12.802
55 1 1.09246 3.6507 2.30156
56 1 1.71984 3.37133 0.672948
57 1 2.30953 3.32882 1.48549
58 1 2.87697 4.11003 12.9061
59 1 2.3143 3.80979 2.36004
60 1 2.76856 3.42322 0.682895
61 1 3.40955 3.51041 1.58858
62 1 4.00235 4.07593 0.0798934
63 1 3.57231 3.90171 2.50553
64 1 3.95982 3.56991 0.846526
65 1 13.4078 0.187673 2.44452
66 1 0.554635 0.336718 3.20118
67 1 1.78309 0.434874 3.38175
68 1 1.62982 13.2328 4.04611
69 1 2.88875 0.573776 3.23047
70 1 2.78887 0.174638 4.1481
71 1 4.39809 0.8112 2.48317
72 1 3.91378 0.327394 3.9541
73 1 0.596063 1.41024 3.23878
74 1 0.470089 0.85819 4.07971
75 1 1.26544 1.5086 2.49475
76 1 1.57423 0.953443 3.92076
77 1 1.79142 1.64628 3.19448
78 1 2.71927 1.25685 4.2119
79 1 3.92341 2.36395 4.21555
80 1 4.38413 1.89742 2.29048
81 1 0.649559 2.51264 3.21632
82 1 0.569089 2.02471 4.04045
83 1 1.67033 2.7613 3.14411
84 1 1.71733 2.1249 3.97389
85 1 2.78659 2.20985 4.07952
86 1 3.32776 2.46843 4.85533
87 1 3.25517 2.95425 2.43597
88 1 4.51096 2.59892 4.81698
89 1 0.68744 3.53209 3.24471
90 1 0.638252 3.05581 4.13647
91 1 1.74201 3.76977 3.11476
92 1 1.73909 3.17063 4.12405
93 1 2.85388 4.04772 3.12191
94 1 2.76464 3.44671 3.91839
95 1 4.00091 4.16709 3.29522
96 1 3.96327 2.79175 3.37011
97 1 4.45549 0.31 1.56643
98 1 4.89039 0.959928 0.0672571
99 1 4.56058 1.30657 1.58235
100 1 5.01794 0.36358 0.725935
101 1 5.39375 0.34285 1.74777
102 1 6.10573 0.901838 0.00560366
103 1 5.46753 0.911992 2.62932
104 1 6.08415 0.293064 0.987703
105 1 6.5326 0.200645 1.6809
106 1 7.23912 0.937962 0.0202964
107 1 6.71898 0.805929 2.33214
108 1 7.76339 0.246389 1.58128
109 1 7.2306 0.202392 0.890525
110 1 7.95012 1.26185 11.141
111 1 7.78209 0.869707 2.3292
112 1 8.3974 0.0844203 0.798444
113 1 5.03197 1.5753 0.865469
114 1 4.45863 1.86918 12.0897
115 1 3.95689 1.70964 3.2352
116 1 6.14225 1.37347 0.760301
117 1 6.06946 1.98832 0.0071094
118 1 6.05608 2.41366 0.891002
119 1 5.48206 2.0816 2.37908
120 1 4.93119 1.94031 12.9231
121 1 6.70211 1.45986 1.72521
122 1 6.62574 1.95805 12.1344
123 1 6.59929 2.04112 2.52146
124 1 7.18726 1.23832 0.920294
125 1 7.89241 1.44059 1.50145
126 1 8.36073 1.83528 0.064505
127 1 7.71685 1.87961 2.56814
128 1 7.71678 1.79749 12.1549
129 1 4.50058 2.6501 1.78642
130 1 5.16161 2.96441 0.00774958
131 1 4.46262 3.18119 2.53753
132 1 5.01528 2.601 0.819338
133 1 5.66491 2.62557 1.67077
134 1 6.23511 3.13285 12.9315
135 1 5.56102 3.21657 2.42733
136 1 6.76657 2.56077 1.73237
137 1 7.84296 2.92137 2.53745
138 1 7.86712 2.86123 12.1054
139 1 6.70703 3.12361 2.42478
140 1 7.15192 1.9449 0.0521675
141 1 7.17877 2.42973 0.848232
142 1 8.39613 3.02602 0.0276363
143 1 7.83039 3.61552 1.57775
144 1 7.84481 2.44499 1.61615
145 1 4.51186 3.61794 1.68152
146 1 5.0769 4.23592 0.10945
147 1 4.50225 4.39457 2.38019
148 1 5.06246 3.61049 0.871942
149 1 5.65766 3.83674 1.55394
150 1 6.07751 4.33147 0.0142977
151 1 5.54592 4.2428 2.45601
152 1 6.18856 3.60716 0.830274
153 1 7.28534 4.18143 0.0118388
154 1 6.63349 4.24806 12.2324
155 1 6.76276 3.6953 1.71478
156 1 7.31767 3.40938 0.820841
157 1 7.85181 4.10252 2.59461
158 1 8.47581 4.02023 12.8369
159 1 8.42327 4.00462 3.31119
160 1 8.46403 3.38508 0.852984
161 1 4.84175 0.847061 3.44015
162 1 5.06791 0.265967 4.07847
163 1 6.1683 0.905587 3.24822
164 1 6.23558 0.348758 4.16064
165 1 7.17102 0.778428 3.18337
166 1 7.34898 0.329438 4.1701
167 1 8.23438 0.688488 3.20124
168 1 8.51223 0.099016 3.96032
169 1 5.08298 1.5207 3.95441
170 1 4.58545 1.37811 4.79518
171 1 6.10858 1.94017 3.28319
172 1 6.12995 1.46591 4.10348
173 1 7.25726 1.85775 3.35883
174 1 7.28128 1.35348 4.05584
175 1 8.49898 1.69847 3.15118
176 1 8.43214 1.14341 4.05984
177 1 5.00086 3.18227 3.3482
178 1 5.11296 2.51289 4.05596
179 1 6.16009 3.09879 3.15844
180 1 6.23986 2.68214 3.91223
181 1 7.25149 3.06611 3.25732
182 1 7.37107 2.46592 4.01807
183 1 8.46565 2.8941 3.27651
184 1 8.39861 2.20736 3.97226
185 1 5.05872 3.643 4.15856
186 1 4.42874 3.75753 4.70269
187 1 6.83253 4.28132 2.37722
188 1 6.23704 3.80146 4.03422
189 1 7.26468 4.11157 3.25945
190 1 7.26634 3.64129 4.13828
191 1 8.46783 5.11781 3.06672
192 1 7.89471 3.57659 4.9698
193 1 9.01054 0.0405839 1.61827
194 1 8.88376 0.577267 12.1138
195 1 8.93114 0.644463 2.39555
196 1 9.52587 0.0950115 0.70485
197 1 9.98061 13.2092 1.51997
198 1 10.531 0.58582 0.13533
199 1 10.1354 0.313196 2.35614
200 1 10.709 13.3009 0.905538
201 1 11.2504 13.1083 1.64853
202 1 11.2514 0.267979 12.2435
203 1 11.3226 0.237505 2.50365
204 1 11.8432 13.1587 0.904136
205 1 12.4021 13.0257 1.59194
206 1 11.6432 0.313917 0.14228
207 1 12.3956 0.184301 2.39587
208 1 12.9092 13.1979 0.809137
209 1 8.3414 1.19326 0.722727
210 1 9.50414 2.23757 0.844551
211 1 9.05513 1.17187 1.52454
212 1 9.40761 0.643901 12.8432
213 1 9.49595 1.19311 0.798951
214 1 10.0635 2.78346 12.1866
215 1 10.0131 1.54267 2.39314
216 1 10.5871 0.95585 0.949801
217 1 11.2632 0.771185 1.8326
218 1 11.8343 1.96703 0.724708
219 1 11.2781 1.39415 2.46557
220 1 11.6299 0.964731 0.908803
221 1 12.2831 0.73021 1.61611
222 1 12.2774 0.11926 12.2162
223 1 12.432 1.37574 2.5205
224 1 0.536686 13.0603 0.747918
225 1 8.93708 2.26653 1.60591
226 1 8.88727 2.92209 12.1724
227 1 9.53522 2.7944 3.22606
228 1 10.1084 2.1558 1.61913
229 1 10.0257 0.91434 1.6637
230 1 9.97329 2.15892 11.374
231 1 10.0653 2.68225 2.39957
232 1 10.6349 2.03571 0.738164
233 1 11.1895 2.0029 1.58744
234 1 12.4065 2.44866 12.1359
235 1 11.1946 2.52499 2.43828
236 1 11.749 2.50717 12.8443
237 1 12.2295 1.91093 1.68991
238 1 11.8747 3.54108 0.0973361
239 1 12.3502 2.41446 2.41015
240 1 12.7753 1.28883 0.0330833
241 1 8.92234 2.87126 2.48062
242 1 9.48804 4.51239 0.765404
243 1 8.90132 3.36491 1.7386
244 1 9.46543 3.35774 0.872738
245 1 10.0676 3.23207 1.61471
246 1 10.6508 3.73983 0.0621879
247 1 10.0946 3.75223 2.39266
248 1 9.93016 3.30483 11.383
249 1 11.163 3.26559 1.70869
250 1 12.2968 3.55965 12.2593
251 1 11.0674 4.23147 1.51173
252 1 11.616 4.20752 0.880073
253 1 12.1602 3.01188 1.61035
254 1 12.8714 3.0571 0.85707
255 1 12.4277 3.41179 2.35549
256 1 12.9085 2.36457 12.9086
257 1 9.38451 0.524484 3.16717
258 1 9.49268 13.3241 4.02823
259 1 10.5257 0.351096 3.21779
260 1 10.5938 13.2379 3.89828
261 1 11.7043 0.109402 3.35038
262 1 11.7192 13.0747 4.24609
263 1 12.8876 0.0892783 3.33325
264 1 12.826 13.0137 4.08899
265 1 9.02456 1.75756 2.35338
266 1 9.55945 1.03587 3.96051
267 1 10.6217 1.39577 3.10718
268 1 10.5852 0.978274 3.95188
269 1 11.7673 1.23602 3.27204
270 1 11.7174 0.782901 4.02038
271 1 12.8857 1.24392 3.24916
272 1 12.803 0.679076 4.02856
273 1 9.5926 2.25558 3.9657
274 1 9.58963 1.65936 3.2563
275 1 10.6097 2.53536 3.22159
276 1 10.6569 2.01944 4.01858
277 1 11.7947 2.40903 3.26271
278 1 11.7106 1.84489 4.05069
279 1 12.8124 2.36199 3.31834
280 1 13.0001 1.8685 4.01461
281 1 9.58919 3.92289 3.15003
282 1 9.6041 3.3829 3.95785
283 1 13.0359 3.53909 3.18527
284 1 10.7188 3.1086 3.94105
285 1 11.2444 3.69791 2.57766
286 1 11.8352 3.02853 4.08323
287 1 11.9007 3.58874 3.21796
288 1 12.9803 3.00076 4.12765
289 1 0.0101056 4.14203 1.51045
290 1 0.653537 4.70803 0.0917245
291 1 13.3163 4.69442 2.41771
292 1 0.64665 4.14757 0.884328
293 1 1.15558 4.41825 1.70012
294 1 1.78801 4.91392 0.0799379
295 1 1.06593 4.9341 2.38778
296 1 1.67013 4.41224 0.86516
297 1 2.29965 4.37939 1.65867
298 1 2.71403 5.25021 12.9345
299 1 2.21625 4.97178 2.4833
300 1 2.80295 4.57685 0.73741
301 1 3.35783 4.56217 1.56831
302 1 3.93418 5.25916 12.9166
303 1 3.43184 5.15145 2.43749
304 1 3.94534 4.71432 0.774649
305 1 0.013358 5.16739 1.54664
306 1 0.495805 6.02501 0.0634897
307 1 0.120495 5.79734 2.52906
308 1 0.586013 5.36545 0.773923
309 1 1.10158 5.53049 1.54422
310 1 1.61305 5.88001 0.0159868
311 1 1.18379 6.02241 2.41156
312 1 1.75154 5.55577 0.912433
313 1 2.37031 5.48336 1.60724
314 1 2.78355 6.18375 12.92
315 1 2.22516 6.04579 2.40731
316 1 2.94631 5.62924 0.895377
317 1 3.4434 5.65301 1.75164
318 1 3.88255 6.43469 12.8646
319 1 3.33951 6.42302 2.30167
320 1 3.89325 5.91994 0.696016
321 1 0.0829201 6.22465 1.62523
322 1 0.536451 7.1316 0.000390718
323 1 0.00200184 6.89881 2.31726
324 1 0.649359 6.58634 0.83145
325 1 1.19818 6.63482 1.67489
326 1 1.66527 7.15824 12.8799
327 1 1.02742 7.07541 2.47353
328 1 1.69124 6.59705 0.789853
329 1 2.32642 6.65887 1.83525
330 1 2.92748 7.14682 0.0339428
331 1 2.17193 7.36876 2.5831
332 1 2.55096 6.63469 0.862444
333 1 3.40196 6.88016 1.57788
334 1 4.13761 7.53091 12.921
335 1 3.38497 7.45472 2.42719
336 1 3.89142 6.88388 0.848182
337 1 0.0913127 7.37095 1.4933
338 1 0.531555 8.06871 12.8708
339 1 13.3456 7.93173 2.34062
340 1 0.617293 7.74892 0.798886
341 1 1.36696 7.57712 1.50621
342 1 1.67247 8.33814 0.00027259
343 1 0.951175 8.06593 2.39751
344 1 1.76894 7.73051 0.682073
345 1 2.29019 7.80326 1.62116
346 1 2.76771 8.33079 0.072178
347 1 2.14594 8.36783 2.5868
348 1 2.86802 7.85021 0.807509
349 1 3.40221 8.05696 1.58898
350 1 3.93774 8.5199 0.0269549
351 1 2.76482 9.67953 3.34456
352 1 4.03231 8.00049 0.859034
353 1 0.62843 4.65827 3.18942
354 1 0.632116 4.17269 4.03285
355 1 1.59722 4.86064 3.19725
356 1 1.66312 4.18609 4.02055
357 1 2.86153 5.06469 3.14068
358 1 2.77593 4.59761 4.07822
359 1 3.96237 5.3623 3.21726
360 1 4.03063 4.7572 3.954
361 1 0.578105 5.87696 3.31014
362 1 0.538007 5.2064 4.0229
363 1 1.61306 6.09036 3.3143
364 1 1.708 5.3682 3.97981
365 1 2.66987 6.18206 3.23786
366 1 2.81078 5.62937 4.00327
367 1 3.97014 6.42603 3.17918
368 1 3.91719 5.75147 4.06223
369 1 0.457027 6.99079 3.24736
370 1 0.63462 6.46162 4.13547
371 1 1.64076 7.13604 3.21292
372 1 1.7926 6.54061 4.17438
373 1 3.00409 7.16379 3.34242
374 1 2.86395 6.65885 4.15689
375 1 5.03858 7.56147 3.07989
376 1 3.42515 6.82876 4.88305
377 1 0.417877 8.00774 3.19832
378 1 0.554932 7.52687 4.03298
379 1 1.53354 8.28558 3.25056
380 1 1.64341 7.59248 4.05175
381 1 3.88176 8.68049 3.23892
382 1 2.67331 7.77818 3.93243
383 1 3.98727 7.55761 3.31979
384 1 3.93254 8.09057 4.13161
385 1 4.44373 4.83737 1.48523
386 1 4.89879 5.30046 0.102618
387 1 4.70263 5.31187 2.45435
388 1 5.19922 4.80544 0.952041
389 1 5.80259 5.38609 2.42759
390 1 6.17909 4.96633 0.721125
391 1 6.14324 5.29267 3.29172
392 1 5.62909 4.80584 1.75409
393 1 6.76203 4.82772 1.60141
394 1 6.70654 5.34287 12.1664
395 1 6.88214 5.42991 2.43271
396 1 7.15293 4.66264 0.776042
397 1 7.80856 4.60006 1.51362
398 1 8.23553 5.24402 0.0527913
399 1 7.9037 5.18518 2.44231
400 1 8.38061 4.44134 0.74358
401 1 4.53286 5.87799 1.70004
402 1 5.05926 6.51591 0.116957
403 1 4.4811 6.515 2.38751
404 1 5.0274 5.88067 0.789968
405 1 5.50225 5.98545 1.60084
406 1 6.03185 6.56867 0.0321447
407 1 6.18224 6.51004 3.33157
408 1 6.17644 6.04245 0.842121
409 1 6.66261 5.93696 1.68065
410 1 7.2289 5.83189 0.850042
411 1 6.69627 6.55671 2.50051
412 1 7.32845 5.21052 12.9295
413 1 7.91829 5.57793 1.49072
414 1 8.34063 6.34661 12.9251
415 1 7.86744 6.23431 2.52817
416 1 8.48831 5.71504 0.780923
417 1 4.51355 6.97911 1.62729
418 1 5.21915 7.76933 0.0554017
419 1 4.35607 7.62586 2.46458
420 1 5.00675 7.11446 0.746608
421 1 5.63076 6.51406 2.4118
422 1 6.29816 7.61683 12.9393
423 1 5.59024 7.08428 1.51415
424 1 6.21021 7.18197 0.85029
425 1 6.86531 6.9442 1.63818
426 1 7.35406 7.54224 12.9143
427 1 6.80881 7.56162 2.48263
428 1 7.31086 7.03887 0.786413
429 1 7.86442 6.64918 1.63448
430 1 8.4285 6.85459 0.867503
431 1 7.97569 7.26427 2.47272
432 1 8.92981 6.61176 1.61624
433 1 4.61053 8.18028 1.57963
434 1 5.04836 8.72375 12.867
435 1 4.33807 8.75512 2.35897
436 1 5.1362 8.26976 0.785911
437 1 5.64879 7.57921 2.3586
438 1 6.26077 8.71497 12.8622
439 1 5.57664 8.22571 1.66877
440 1 6.27202 8.30885 0.868679
441 1 6.70096 8.12978 1.58517
442 1 7.32357 8.66658 0.0541377
443 1 6.71151 8.70824 2.35654
444 1 7.46536 8.13974 0.839062
445 1 7.8256 7.80989 1.66161
446 1 8.43647 7.84137 0.805344
447 1 7.88945 9.05779 1.61078
448 1 8.43575 7.31743 0.0104104
449 1 5.1491 5.45251 3.34323
450 1 5.18111 4.17547 3.34203
451 1 6.20376 5.95085 4.0457
452 1 6.22678 4.17173 3.186
453 1 7.12491 5.16218 3.31904
454 1 7.3674 4.72621 4.08374
455 1 8.49879 5.6464 3.98615
456 1 8.41291 3.42996 4.07294
457 1 5.01264 6.03837 4.07229
458 1 4.50809 5.23638 5.79509
459 1 6.26165 7.16051 3.97193
460 1 6.09499 7.80691 3.22331
461 1 7.24275 6.30598 3.28257
462 1 8.34548 6.31364 6.55108
463 1 8.40272 6.29762 3.41443
464 1 7.85989 6.32414 5.52685
465 1 5.07834 7.98022 3.96923
466 1 5.11455 6.48161 3.17448
467 1 6.2269 8.78627 3.21134
468 1 5.03173 7.03454 4.06891
469 1 6.10322 8.21287 4.06598
470 1 7.36501 7.59723 3.16723
471 1 8.60234 7.45752 3.02052
472 1 8.52905 6.89275 4.11988
473 1 4.99626 8.71132 3.12633
474 1 4.54624 8.16978 4.88544
475 1 5.58299 8.21287 4.83455
476 1 6.73115 8.0539 4.7711
477 1 7.24448 8.58037 3.35255
478 1 6.78787 9.30269 4.93463
479 1 7.72946 8.56352 2.30015
480 1 8.34998 7.86066 3.91819
481 1 8.99681 4.20548 2.41991
482 1 9.42887 4.97748 12.8571
483 1 8.87954 4.52402 1.61785
484 1 10.0644 4.3589 1.56011
485 1 10.6378 3.10593 0.789443
486 1 10.1074 5.01149 12.1352
487 1 10.0877 4.83419 2.48702
488 1 10.6834 4.86157 12.906
489 1 10.5122 4.36209 0.715626
490 1 12.2792 4.67758 12.1048
491 1 11.3645 4.81526 2.43784
492 1 11.7092 4.6732 12.8803
493 1 12.2907 4.06007 1.55819
494 1 12.7953 4.62378 0.0273001
495 1 12.2178 4.50428 2.35237
496 1 12.8097 4.17765 0.776222
497 1 9.07578 5.52451 1.71914
498 1 9.47457 6.1904 12.8205
499 1 9.55205 6.10885 3.17543
500 1 9.59804 5.56984 0.777787
501 1 10.1519 5.44415 1.76294
502 1 10.5786 5.92582 0.0287547
503 1 10.1837 6.08222 2.39598
504 1 10.5585 5.44669 0.871978
505 1 11.1594 5.33555 1.60588
506 1 11.2154 6.05117 12.2721
507 1 11.2224 5.85559 2.45021
508 1 11.7695 5.2483 0.792112
509 1 12.3733 5.14064 1.62676
510 1 12.8931 5.8109 12.8669
511 1 12.3167 5.69382 2.4495
512 1 12.866 5.27347 0.804396
513 1 8.83838 6.01227 2.45446
514 1 9.58591 7.23553 0.0615083
515 1 9.15614 6.95173 2.46085
516 1 9.54471 6.61587 0.771681
517 1 10.1648 6.59062 1.52414
518 1 10.7989 7.12493 12.9116
519 1 10.1456 7.18037 2.44667
520 1 10.6472 6.49852 0.796359
521 1 11.2614 6.44481 1.59931
522 1 11.9858 6.94185 12.9234
523 1 11.2092 6.97687 2.39901
524 1 12.804 6.4226 0.947567
525 1 12.2907 6.20614 1.64454
526 1 12.4818 6.8692 12.0039
527 1 12.338 6.90618 2.48356
528 1 12.9655 6.82063 0.0396283
529 1 8.98699 7.70989 1.56704
530 1 10.1594 8.29662 12.1967
531 1 8.33626 8.51591 3.10307
532 1 9.60648 7.83554 0.818752
533 1 10.0359 7.67099 1.6405
534 1 10.6794 8.22743 0.0790593
535 1 10.067 8.17531 2.51195
536 1 10.6783 7.64011 0.793582
537 1 11.1335 7.6703 1.57885
538 1 11.7417 7.37219 0.94103
539 1 11.2371 8.01915 2.46294
540 1 11.765 6.39935 0.686027
541 1 12.4105 7.38649 1.635
542 1 12.8981 7.96247 12.9219
543 1 12.8245 8.04934 3.16594
544 1 12.8677 7.5492 0.799712
545 1 9.44468 5.11539 3.07249
546 1 9.5344 4.41844 4.01749
547 1 10.6733 4.88704 3.20396
548 1 10.6446 3.76797 3.24148
549 1 11.9007 4.69896 3.43473
550 1 11.8421 4.03691 4.08597
551 1 12.8478 4.60693 3.1485
552 1 12.965 4.05313 3.97143
553 1 9.6477 6.5 3.98989
554 1 9.53381 5.45515 4.11933
555 1 10.7007 5.94788 3.25836
556 1 10.5577 5.43767 3.95484
557 1 11.8442 5.91894 3.26383
558 1 11.7413 5.29067 4.07712
559 1 12.892 5.70497 3.21853
560 1 12.8836 5.11688 4.03567
561 1 9.53947 8.45041 3.33723
562 1 9.5807 7.34843 3.35402
563 1 10.645 7.20087 3.22751
564 1 10.7651 6.72843 3.97516
565 1 11.7203 6.90334 3.15959
566 1 11.8058 6.41345 4.09911
567 1 12.9527 6.87887 3.22017
568 1 12.8556 6.22288 4.13568
569 1 8.98833 8.34217 2.34335
570 1 9.03112 7.88804 4.90424
571 1 10.6533 8.32504 3.27529
572 1 10.7577 7.82041 4.1149
573 1 12.25 8.12562 2.26108
574 1 11.8166 8.69269 4.06952
575 1 12.8825 7.37533 4.02516
576 1 12.2992 7.52024 4.80707
577 1 0.0551252 8.60202 1.75016
578 1 0.445266 9.17064 0.0594065
579 1 0.681033 9.17771 3.14183
580 1 0.719264 8.70581 0.894617
581 1 1.28688 8.71914 1.75634
582 1 1.64611 9.34504 12.8294
583 1 1.15253 9.39925 2.37388
584 1 1.73027 8.87043 0.714738
585 1 2.30078 8.84092 1.5476
586 1 2.79726 9.57954 12.9271
587 1 2.26566 9.38182 2.55377
588 1 2.81224 8.98787 0.746382
589 1 3.38239 9.02574 1.63322
590 1 3.92422 9.77218 12.9407
591 1 3.23552 8.51647 2.49935
592 1 3.87865 9.13837 0.754097
593 1 13.4266 9.23699 2.40583
594 1 0.656199 10.4033 0.0794524
595 1 13.3441 10.3155 2.48453
596 1 0.646602 9.81128 0.663315
597 1 1.05328 9.81725 1.51838
598 1 1.73455 10.5376 0.0289585
599 1 1.00138 10.4277 2.47142
600 1 1.74244 9.95094 0.741638
601 1 2.1425 9.85616 1.65199
602 1 2.95805 10.7342 12.8906
603 1 2.09524 10.5416 2.46325
604 1 2.74148 10.1506 0.937669
605 1 3.25369 10.2153 1.71541
606 1 4.02039 10.8345 12.9433
607 1 3.32953 10.8654 2.33359
608 1 3.75757 10.2832 0.849173
609 1 0.132292 10.8844 1.73135
610 1 0.72998 11.4209 12.764
611 1 0.00296273 11.4083 2.51387
612 1 0.590688 11.0129 0.929052
613 1 1.28752 10.8736 1.59917
614 1 2.15328 11.6482 12.2345
615 1 1.1249 11.512 2.37829
616 1 1.72926 11.0316 0.81441
617 1 2.31934 11.1451 1.69654
618 1 2.79261 12.3776 0.762583
619 1 2.25206 11.7296 2.50871
620 1 2.76494 11.2302 0.817442
621 1 3.34402 11.4287 1.58946
622 1 4.00691 11.8392 12.9156
623 1 3.47648 11.9991 2.57639
624 1 3.85987 11.4074 0.779482
625 1 0.1716 11.9489 1.60616
626 1 0.643734 12.5704 12.8443
627 1 13.3733 12.4748 2.39103
628 1 0.679318 12.0064 0.709798
629 1 1.1321 12.1234 1.74015
630 1 1.65703 0.370304 12.9376
631 1 1.10989 12.7605 2.44106
632 1 1.70486 12.17 0.895291
633 1 2.24641 12.2595 1.63893
634 1 1.75128 12.7845 12.917
635 1 2.23498 12.755 2.48335
636 1 2.71063 12.9872 0.0479451
637 1 3.3239 12.4673 1.61644
638 1 3.95028 13.0364 0.0737574
639 1 3.37897 13.0068 2.39703
640 1 3.89444 12.4743 0.786256
641 1 0.557807 9.70502 3.94575
642 1 0.555272 8.62591 4.05192
643 1 1.63692 9.4208 3.31427
644 1 1.7659 8.76528 4.06325
645 1 2.83262 8.38702 3.29132
646 1 2.7834 9.0169 4.03864
647 1 3.17767 9.53708 2.43838
648 1 3.87486 9.76998 3.23295
649 1 0.456841 10.3789 3.35384
650 1 0.0152982 9.69835 4.79262
651 1 1.63478 10.4866 3.26346
652 1 1.62141 9.93921 4.08809
653 1 2.77279 10.7162 3.09276
654 1 2.84249 10.2185 4.09376
655 1 3.84403 10.8333 3.31242
656 1 3.98922 10.3025 4.07232
657 1 0.636843 11.4073 3.22423
658 1 0.646465 10.858 4.05938
659 1 1.60831 11.5832 3.21917
660 1 1.70713 10.9797 4.07612
661 1 2.80594 11.791 3.28572
662 1 2.85474 11.1758 4.05167
663 1 4.00128 11.9974 3.20606
664 1 3.85684 11.4549 4.05184
665 1 0.602466 13.1638 4.04347
666 1 0.606971 12.6272 3.17992
667 1 1.72546 12.6638 3.29283
668 1 1.75921 12.125 4.0931
669 1 2.78889 12.9399 3.1937
670 1 2.83568 12.4885 3.96906
671 1 3.8127 13.1204 3.39844
672 1 4.01941 12.5388 4.00296
673 1 4.46916 9.29778 1.64924
674 1 5.01629 9.84184 12.9392
675 1 4.39654 9.93309 2.51102
676 1 5.06496 9.33029 0.837551
677 1 5.52898 9.3969 1.66245
678 1 6.13598 10.9489 0.0307479
679 1 5.55905 9.94753 2.31821
680 1 6.0404 9.32334 0.655066
681 1 6.6603 9.24915 1.61453
682 1 7.30461 9.74764 12.8601
683 1 6.78113 9.74311 2.35935
684 1 7.2726 9.26076 0.946396
685 1 8.53222 8.99072 0.838028
686 1 8.30352 9.54826 0.106279
687 1 7.76026 10.3184 1.66529
688 1 8.45014 8.49847 0.0234838
689 1 4.36146 10.3602 1.69865
690 1 5.12184 11.1092 0.101752
691 1 4.4342 11.0052 2.43068
692 1 4.89624 10.4448 0.773658
693 1 5.53769 10.5064 1.50314
694 1 5.38966 11.118 12.1713
695 1 5.57725 11.0005 2.46433
696 1 6.14213 9.90693 12.9058
697 1 6.17093 10.4146 0.896295
698 1 7.20159 10.8289 0.048148
699 1 6.58894 10.9727 2.51121
700 1 6.71659 10.3984 1.67895
701 1 7.33134 10.2243 0.87264
702 1 8.32487 10.7225 12.9409
703 1 7.6624 10.8321 2.53853
704 1 8.4068 10.1277 0.820812
705 1 4.44619 11.4982 1.67502
706 1 5.01399 12.1802 0.0607218
707 1 4.56253 12.1781 2.43941
708 1 4.96291 11.6092 0.895495
709 1 5.65196 11.4833 1.58328
710 1 6.10794 12.0702 12.9066
711 1 5.61377 12.147 2.36835
712 1 6.19883 11.6175 0.757425
713 1 6.68698 11.5046 1.64063
714 1 7.19827 11.9654 12.9099
715 1 6.74968 12.0137 2.56782
716 1 7.19915 11.3147 0.839894
717 1 7.84351 11.3685 1.55629
718 1 8.32127 11.8245 0.0559263
719 1 7.84225 11.9035 2.29376
720 1 8.39223 11.2523 0.763112
721 1 4.46673 12.7291 1.70272
722 1 5.11215 13.2723 12.9103
723 1 4.44226 13.218 2.57127
724 1 4.96661 12.6845 0.895983
725 1 5.59067 12.7041 1.73896
726 1 6.22035 13.3541 0.06688
727 1 5.64535 13.2162 2.56135
728 1 6.11714 12.6469 0.736389
729 1 6.67152 12.5095 1.55017
730 1 7.16923 13.2231 0.0547306
731 1 6.7863 13.0387 2.47416
732 1 7.26317 12.5797 0.681153
733 1 7.73377 12.4764 1.63006
734 1 8.3135 12.9762 0.038622
735 1 7.84872 13.1549 2.42815
736 1 8.35795 12.4821 0.895575
737 1 5.08458 9.84535 3.19145
738 1 4.96305 9.11041 3.87047
739 1 6.25482 9.8214 3.15196
740 1 5.96664 9.26549 4.01525
741 1 7.90204 9.73079 2.43575
742 1 7.19074 9.30888 4.07831
743 1 8.46763 9.66124 3.28924
744 1 8.87883 8.94176 4.86087
745 1 4.94882 10.9879 3.30225
746 1 4.95773 10.257 4.01906
747 1 5.98895 10.8792 3.30056
748 1 6.17074 10.2749 4.19663
749 1 7.19461 10.943 3.32575
750 1 7.20974 10.3885 3.93772
751 1 8.27454 10.8952 3.18286
752 1 8.42218 10.2389 3.92082
753 1 5.12923 12.0811 3.25275
754 1 4.94832 11.5028 4.15223
755 1 6.12534 12.168 3.24749
756 1 6.09903 11.5015 3.98354
757 1 7.31895 12.0532 3.18534
758 1 7.15371 11.6885 4.01522
759 1 8.44218 11.874 3.27648
760 1 8.35593 11.2318 4.08231
761 1 5.03928 13.15 3.31347
762 1 5.13601 12.5718 4.14573
763 1 6.13744 13.3061 3.22571
764 1 6.27097 12.7111 4.06903
765 1 7.32115 13.2092 3.28331
766 1 7.33017 12.6869 4.02413
767 1 8.36128 12.8901 3.29819
768 1 8.61891 12.3932 4.18307
769 1 9.04381 8.87318 1.57647
770 1 9.61105 8.99826 0.828113
771 1 8.91514 9.44893 2.43863
772 1 9.39503 9.49424 0.0131857
773 1 9.97963 8.87868 1.85282
774 1 9.95711 9.27538 12.1778
775 1 10.0671 9.52935 2.56153
776 1 10.6598 8.80066 1.0135
777 1 11.2141 8.77123 1.59086
778 1 11.7649 9.20521 12.8958
779 1 11.1056 9.1144 2.47207
780 1 11.7543 8.59305 0.807944
781 1 12.3105 8.63404 1.57704
782 1 12.891 9.1416 0.134659
783 1 12.2894 9.17351 2.38125
784 1 12.9735 8.65047 0.85745
785 1 8.89569 10.0584 1.71066
786 1 9.5218 10.7578 12.9146
787 1 8.94823 10.6623 2.43954
788 1 9.48143 10.0324 0.858724
789 1 9.94155 10.0438 1.71908
790 1 11.0485 9.87601 1.66866
791 1 10.0654 10.6392 2.51845
792 1 10.6307 9.28467 0.137432
793 1 11.7238 9.83461 0.767745
794 1 11.7475 10.3266 0.0106126
795 1 11.7208 10.279 3.22336
796 1 12.8437 9.75017 0.900094
797 1 12.2256 9.7539 1.619
798 1 12.9251 10.2328 0.0642509
799 1 12.3404 10.3425 2.43283
800 1 0.0297236 9.75753 1.49524
801 1 8.96227 11.2581 1.69344
802 1 9.45839 11.6977 12.8806
803 1 9.00464 11.8331 2.4335
804 1 9.44385 11.0406 0.857245
805 1 10.0501 11.1051 1.63822
806 1 10.6329 11.6951 0.117441
807 1 10.1511 11.6073 2.41114
808 1 10.5769 9.89262 0.857145
809 1 10.6076 10.9663 0.808657
810 1 11.7505 10.8418 0.825015
811 1 11.3893 11.5619 2.56235
812 1 11.2511 11.012 1.62851
813 1 12.3517 10.9097 1.60658
814 1 12.9534 11.2983 0.0833742
815 1 12.2755 11.4718 2.5047
816 1 12.9614 10.8199 0.873384
817 1 8.86954 12.4562 1.6737
818 1 9.5756 12.8742 0.163081
819 1 8.87617 13.0269 2.46886
820 1 9.436 12.2224 0.837282
821 1 9.97982 12.2239 1.55879
822 1 10.7595 12.8991 12.879
823 1 10.0683 12.7387 2.5029
824 1 10.624 12.2601 0.723579
825 1 11.0624 11.966 1.61109
826 1 13.3686 12.5225 12.1589
827 1 11.0619 12.5577 2.40783
828 1 11.8014 12.0123 0.988918
829 1 12.5216 11.8798 1.55341
830 1 11.8162 12.5376 0.123227
831 1 12.1882 12.5071 2.39406
832 1 12.9966 11.9886 0.685464
833 1 9.484 9.36715 3.1915
834 1 10.1494 8.93063 4.93019
835 1 10.7035 9.30196 3.32861
836 1 10.5949 8.85467 4.09093
837 1 11.2372 10.2996 2.39709
838 1 11.8062 8.07826 3.31854
839 1 12.9 9.11859 3.19185
840 1 12.849 8.49066 4.02103
841 1 9.45297 10.594 3.28165
842 1 9.49333 10.0477 4.00241
843 1 10.632 10.3755 3.23883
844 1 10.5201 9.95924 4.12386
845 1 11.737 9.74364 4.14017
846 1 11.8339 9.24129 3.23101
847 1 12.7534 10.3479 3.31346
848 1 12.9682 9.56687 4.02732
849 1 9.60413 11.7363 3.34713
850 1 9.58008 11.2455 4.11571
851 1 10.6804 11.394 3.19269
852 1 10.7556 10.9143 4.11536
853 1 11.7881 11.3361 3.42894
854 1 11.8367 10.7752 4.10098
855 1 12.8593 11.4018 3.30793
856 1 13.0029 10.8524 4.11911
857 1 9.51145 12.8435 3.1908
858 1 9.61104 12.2898 4.10477
859 1 10.6445 12.5576 3.35682
860 1 10.671 12.0111 4.01335
861 1 11.7484 12.6101 3.2835
862 1 11.884 12.0178 4.00175
863 1 12.8731 12.5248 3.15324
864 1 12.9857 12.034 4.16821
865 1 0.0061149 13.1358 4.85642
866 1 13.3119 0.29114 5.68882
867 1 1.02325 13.1905 4.85041
868 1 1.14131 0.265772 5.77448
869 1 2.14813 13.3235 4.88325
870 1 2.37334 0.4378 5.62595
871 1 3.31041 0.0135665 4.8607
872 1 3.37434 0.798132 5.53895
873 1 13.302 0.701283 4.84444
874 1 13.3964 1.30243 5.6636
875 1 1.06663 0.804601 4.86875
876 1 1.09196 1.43526 5.63347
877 1 2.07683 0.992805 4.89174
878 1 2.43533 1.65502 5.61053
879 1 3.43886 1.27453 4.78922
880 1 3.39271 1.94949 5.6246
881 1 0.116578 1.89957 4.94993
882 1 13.4367 2.53945 5.62944
883 1 1.18504 1.9518 4.73638
884 1 1.08138 2.46101 5.81428
885 1 2.13272 2.25401 5.06544
886 1 2.26251 2.94675 5.80191
887 1 3.48847 2.9582 5.67838
888 1 4.26156 2.88354 6.37716
889 1 13.3868 3.08684 4.91218
890 1 0.0731056 3.63415 5.74377
891 1 1.17734 3.05336 4.92799
892 1 1.16746 3.52464 5.66282
893 1 2.29457 3.2185 4.83556
894 1 2.25383 3.85693 5.56861
895 1 3.26296 3.57955 4.77763
896 1 3.37586 3.96289 5.64418
897 1 13.3742 13.1147 8.31565
898 1 0.610593 0.226786 6.42917
899 1 0.415524 13.1268 7.41783
900 1 1.08321 13.2147 8.08295
901 1 1.82595 0.509424 6.4467
902 1 1.52814 13.3289 7.23381
903 1 2.06987 13.3611 8.24325
904 1 2.83644 0.281677 6.55328
905 1 2.65388 0.000888306 7.40225
906 1 3.36603 0.215044 8.04037
907 1 3.78169 0.872217 6.50991
908 1 3.98255 0.252695 7.3495
909 1 0.0029249 0.843468 8.0749
910 1 0.482281 1.4082 6.49637
911 1 0.587891 0.790065 7.20261
912 1 1.0354 0.921298 8.19012
913 1 1.76499 1.44128 6.36428
914 1 1.54109 1.00335 7.3356
915 1 2.12248 1.12452 8.09048
916 1 2.84653 1.57617 6.4402
917 1 2.69185 1.07272 7.26891
918 1 3.33339 0.66648 8.97811
919 1 3.87451 2.47063 7.3599
920 1 3.99975 1.3912 7.38618
921 1 0.12154 1.87964 7.93371
922 1 0.524617 2.62446 6.5362
923 1 0.701321 1.89086 7.23924
924 1 1.31543 2.11178 8.02664
925 1 1.63388 2.60657 6.4901
926 1 1.73152 2.00191 7.17283
927 1 2.29443 2.23378 8.03321
928 1 2.94276 2.82413 6.38943
929 1 2.74738 2.25235 7.24828
930 1 3.33731 1.78971 8.99187
931 1 3.22562 3.51365 8.21494
932 1 3.32019 2.37203 8.15472
933 1 0.0593166 2.94426 8.10629
934 1 0.65833 3.7215 6.44797
935 1 0.556604 3.11027 7.32145
936 1 1.20888 3.13165 7.92916
937 1 1.77378 3.88458 6.44072
938 1 1.72867 3.278 7.18599
939 1 2.1461 3.23574 8.22043
940 1 2.81295 4.10321 6.48254
941 1 2.674 3.39605 7.21498
942 1 3.28081 3.96538 8.99139
943 1 4.47895 4.2161 5.66728
944 1 3.84566 1.89381 6.60877
945 1 4.44488 0.256381 4.85393
946 1 4.34546 0.70815 5.64716
947 1 5.55345 0.356748 4.95621
948 1 5.45424 0.95807 5.79957
949 1 6.7017 0.398648 4.89354
950 1 6.60719 0.953153 5.68765
951 1 7.89927 0.14657 4.80654
952 1 8.38077 0.757059 6.45402
953 1 3.85605 1.25558 3.95856
954 1 3.88373 3.49152 3.97389
955 1 5.62072 1.29058 4.94212
956 1 5.59758 2.06636 5.69374
957 1 6.68735 1.50761 4.94137
958 1 6.74479 2.96743 5.79619
959 1 7.76494 1.31118 4.95123
960 1 7.84174 1.99297 5.63225
961 1 4.46351 1.81633 5.51953
962 1 4.92802 3.70339 7.40107
963 1 5.70566 2.47027 4.76443
964 1 5.09107 3.15222 6.52501
965 1 6.79598 2.58133 4.80476
966 1 6.70851 4.32663 5.64171
967 1 7.89796 2.37598 4.84321
968 1 7.88449 2.99992 5.7995
969 1 5.7912 3.73534 4.84779
970 1 3.94341 3.95984 6.54597
971 1 5.14103 4.79203 4.14994
972 1 5.57175 4.84963 4.93406
973 1 6.82476 3.60798 5.07747
974 1 6.74611 4.85193 4.96433
975 1 7.84747 4.08452 5.88755
976 1 8.54651 4.19528 6.37364
977 1 4.47658 0.184092 8.20613
978 1 4.97114 0.863978 6.46278
979 1 5.02984 0.298502 7.2064
980 1 5.44635 0.546001 8.14163
981 1 6.22581 0.970135 6.55757
982 1 6.0055 0.376552 7.37185
983 1 6.59476 13.3286 8.93074
984 1 7.7425 0.751833 5.66871
985 1 6.74601 0.19448 8.08938
986 1 7.73708 0.104135 8.10426
987 1 8.50466 0.100309 7.24357
988 1 8.27479 12.9969 6.43179
989 1 4.55965 1.39371 8.08183
990 1 4.83519 1.98294 6.34534
991 1 5.00348 1.4717 7.27421