data.lammps (converted from cfg to data.lammps)
    
2298  atoms
1  atom types
0.0   13.4375  xlo xhi
0.0   13.4375  ylo yhi
0.0   12.952  zlo zhi
0.0  0.0 0.0 xy xz yz
    
    
    
Atoms
  
1 1 13.3848 0.0584053 1.67714
2 1 0.511179 0.618701 12.8974
3 1 13.356 0.727998 2.41758
4 1 0.469376 0.0074138 0.753525
5 1 1.00698 0.10025 1.56469
6 1 1.73192 0.655977 0.0472107
7 1 1.00302 0.619887 2.35515
8 1 1.66742 0.159694 0.716031
9 1 2.04749 13.3589 1.61581
10 1 2.82417 0.475416 12.8927
11 1 2.2059 0.427753 2.35357
12 1 2.72734 13.4219 0.804204
13 1 3.2293 13.2496 1.57469
14 1 4.05487 0.368065 0.10866
15 1 3.22801 0.370684 2.46812
16 1 3.83677 13.1704 0.914011
17 1 13.4131 1.20123 1.44489
18 1 0.620278 1.69296 0.0724458
19 1 0.0399883 1.80503 2.487
20 1 0.547237 1.07424 0.747315
21 1 1.01223 1.21289 1.59781
22 1 1.74936 1.76145 0.086098
23 1 1.14841 1.76371 2.34833
24 1 1.69045 1.18812 0.884877
25 1 2.24797 1.08079 1.5693
26 1 2.80496 1.54886 0.00440715
27 1 2.22241 1.54656 2.38225
28 1 2.87283 1.03225 0.967122
29 1 3.31881 0.954745 1.62752
30 1 3.91762 1.5292 0.0531645
31 1 3.37276 1.52086 2.46528
32 1 3.88716 0.961573 0.841451
33 1 13.4128 2.14878 1.62348
34 1 0.708362 2.77548 12.7542
35 1 0.11802 3.00739 2.37075
36 1 0.576312 2.23617 0.718354
37 1 1.08622 2.36431 1.54152
38 1 1.77044 2.77617 12.9291
39 1 1.18793 2.83777 2.4254
40 1 1.71945 2.29705 0.92262
41 1 2.2931 2.23076 1.67057
42 1 2.91545 2.68653 0.116713
43 1 2.30307 2.84579 2.30154
44 1 2.82146 2.19563 0.870465
45 1 3.43331 2.09374 1.75646
46 1 4.02554 2.67863 12.9414
47 1 3.5443 2.77572 2.4945
48 1 3.93204 2.06172 0.850988
49 1 0.147752 3.45372 1.62074
50 1 0.617008 3.98906 0.0305605
51 1 13.3976 4.05654 2.41164
52 1 0.712017 3.24088 0.662438
53 1 1.16016 3.4552 1.51931
54 1 1.85236 3.94737 12.8496
55 1 1.17776 3.93171 2.44038
56 1 1.84341 3.37456 0.65253
57 1 2.21093 3.45084 1.54134
58 1 3.06073 3.94338 0.0277826
59 1 2.28737 3.84769 2.49005
60 1 2.92315 3.38331 0.841587
61 1 3.45387 3.1481 1.65845
62 1 4.14301 3.66271 0.0614778
63 1 3.48057 3.70821 2.40896
64 1 3.92567 3.14251 0.861557
65 1 0.387333 0.411068 3.21463
66 1 0.542919 0.223315 4.06106
67 1 1.55407 0.628684 3.13314
68 1 1.57239 0.0703506 3.99846
69 1 2.69808 0.639066 3.1072
70 1 2.60142 0.0178261 3.82259
71 1 3.85526 0.346498 3.12761
72 1 3.59262 13.2548 4.12424
73 1 0.703592 1.64212 3.20303
74 1 0.496733 1.21848 3.99761
75 1 1.66888 1.61994 3.27122
76 1 1.77618 1.12888 4.11979
77 1 2.79718 1.74507 3.22334
78 1 2.90591 1.00052 4.06206
79 1 3.99392 1.51399 3.2291
80 1 3.88044 0.865773 3.95517
81 1 0.614547 3.05655 3.32129
82 1 0.604984 2.38967 3.86611
83 1 1.75049 2.66458 3.14038
84 1 1.83665 2.30927 4.10433
85 1 2.84839 2.68727 3.11191
86 1 2.80988 1.98712 4.11221
87 1 4.0001 2.59462 3.42096
88 1 4.07339 1.91362 4.03381
89 1 0.618738 4.01435 3.1942
90 1 0.698925 3.52354 4.13636
91 1 1.76604 3.79045 3.25361
92 1 1.87136 3.33407 4.02719
93 1 2.93843 3.82582 3.25515
94 1 2.9641 2.97251 4.07048
95 1 4.05748 3.90764 3.22369
96 1 3.91887 3.33207 4.02687
97 1 4.44612 13.4157 1.61804
98 1 5.08732 0.279758 0.0537166
99 1 4.3143 0.426139 2.35528
100 1 5.01133 13.1206 0.887134
101 1 5.54498 13.1645 1.62759
102 1 6.16109 0.171319 12.946
103 1 5.42716 0.401883 2.47458
104 1 6.12655 13.0348 0.805732
105 1 6.61427 13.1434 1.72762
106 1 7.31058 0.489219 0.00779486
107 1 6.53663 0.357303 2.38841
108 1 7.09441 13.2214 0.827518
109 1 7.75697 13.2711 1.62023
110 1 8.54325 0.627158 0.168653
111 1 7.74856 0.462602 2.32933
112 1 8.27586 0.0560883 0.876279
113 1 4.55389 1.00803 1.58681
114 1 5.04137 1.35462 12.9416
115 1 4.63106 1.52545 2.55955
116 1 5.14709 0.872907 0.824725
117 1 5.61772 0.806413 1.65998
118 1 6.18797 1.38733 0.0689544
119 1 5.74995 1.56391 2.28572
120 1 6.18624 0.701012 0.860302
121 1 6.7571 0.979359 1.59778
122 1 7.21494 1.59705 0.130134
123 1 6.74768 1.52076 2.40901
124 1 7.33526 0.998468 0.812704
125 1 7.90947 1.05731 1.65641
126 1 8.40364 1.67767 12.7876
127 1 7.84696 1.6647 2.55539
128 1 8.29329 1.26391 0.814102
129 1 4.44261 2.048 1.70928
130 1 5.16124 2.46002 12.828
131 1 4.60625 2.72963 2.45802
132 1 5.05339 2.03276 0.753352
133 1 5.48671 2.01274 1.5869
134 1 6.17731 2.59153 0.0753736
135 1 5.66966 2.60902 2.33091
136 1 6.23814 1.99634 0.814603
137 1 6.8119 2.03088 1.53453
138 1 7.23749 2.72174 12.9464
139 1 6.62549 2.59999 2.48983
140 1 7.4633 2.08734 0.967264
141 1 7.92685 2.2464 1.81632
142 1 8.36221 2.81584 0.0864212
143 1 7.81344 2.77475 2.52927
144 1 8.51331 2.24612 0.750926
145 1 4.56824 3.20698 1.54859
146 1 5.25926 3.70858 0.0299034
147 1 4.56759 3.85955 2.42746
148 1 5.12749 3.07703 0.73073
149 1 5.58088 3.14576 1.55161
150 1 6.3004 3.67575 0.0601264
151 1 5.69127 3.79279 2.39271
152 1 6.2955 3.00475 0.980709
153 1 6.88418 3.1652 1.73751
154 1 7.40975 3.8702 12.8833
155 1 6.67726 3.67622 2.40385
156 1 7.23083 3.32133 0.790336
157 1 7.91431 3.25768 1.46102
158 1 8.49336 3.94412 0.0897338
159 1 7.87128 3.8703 2.40775
160 1 8.46554 3.385 0.859948
161 1 5.00168 0.365745 3.25963
162 1 4.93189 13.207 4.11815
163 1 6.08316 0.404779 3.23772
164 1 6.05388 13.1085 3.9885
165 1 7.17362 0.396404 3.20194
166 1 7.17354 13.342 4.0135
167 1 8.19998 0.559653 3.20919
168 1 8.2974 0.0752066 4.12069
169 1 5.14613 1.58835 3.26954
170 1 4.85664 0.934061 3.99872
171 1 6.15223 1.44504 3.16331
172 1 6.1057 0.991971 4.03018
173 1 7.27967 1.47122 3.28774
174 1 7.26497 1.01576 4.04323
175 1 8.38918 1.79346 3.1753
176 1 8.5242 1.04126 3.90255
177 1 5.09039 2.59427 3.27568
178 1 5.17181 2.01927 4.18337
179 1 6.17733 2.6017 3.3584
180 1 6.23888 2.10567 4.15438
181 1 7.30544 2.82789 3.31414
182 1 7.28928 2.19621 3.9987
183 1 8.5299 2.80439 3.24275
184 1 8.29917 2.19233 4.01131
185 1 5.10073 3.71927 3.27377
186 1 5.203 3.1121 4.10901
187 1 6.0908 3.61043 3.2503
188 1 6.36856 3.18665 4.15505
189 1 7.21465 3.91535 3.16785
190 1 7.39671 3.3746 4.08224
191 1 8.31127 3.97483 3.23695
192 1 8.56921 3.40924 3.99526
193 1 8.85584 0.209849 1.65148
194 1 9.52205 0.604912 0.0860087
195 1 8.99164 0.722569 2.53265
196 1 9.48627 0.210545 0.940583
197 1 10.0687 0.23473 1.63694
198 1 10.5727 0.763438 12.8786
199 1 9.97243 0.690052 2.39339
200 1 10.7162 0.313498 0.797711
201 1 11.1771 0.0792102 1.6506
202 1 11.6246 0.666383 12.7607
203 1 11.0965 0.720016 2.30884
204 1 11.7106 0.425705 0.816945
205 1 12.2293 0.0827159 1.53879
206 1 12.7932 0.684532 12.9062
207 1 12.2015 0.637916 2.43042
208 1 12.8519 0.0812691 0.756994
209 1 8.84413 1.26736 1.59082
210 1 9.63359 1.65441 12.8959
211 1 9.18984 1.74075 2.46172
212 1 9.41668 1.33185 0.781911
213 1 9.97252 1.3085 1.55853
214 1 10.6453 1.85218 0.134132
215 1 10.2333 1.80834 2.45302
216 1 10.7092 1.36196 0.946189
217 1 11.257 1.34887 1.70385
218 1 11.7368 1.79358 12.8575
219 1 11.1707 2.14324 2.46101
220 1 11.8233 1.42826 0.800651
221 1 12.3213 1.25728 1.66704
222 1 12.8682 1.83864 0.0221996
223 1 12.2385 1.84754 2.36867
224 1 12.7932 1.2399 0.715594
225 1 8.96898 2.4245 1.73545
226 1 9.50858 2.73518 12.8784
227 1 8.9581 2.88943 2.51774
228 1 9.47709 2.40019 0.815527
229 1 10.0825 2.38411 1.70985
230 1 10.7696 2.83824 12.9494
231 1 10.1646 3.06607 2.46541
232 1 10.6503 2.48867 0.914462
233 1 11.3743 2.47152 1.60927
234 1 11.8372 3.02725 0.0794134
235 1 11.3297 3.20177 2.34585
236 1 11.8415 2.4159 0.758288
237 1 12.5089 2.39362 1.64147
238 1 12.9874 2.97041 12.8277
239 1 12.3009 3.03348 2.37033
240 1 12.9494 2.45977 0.755822
241 1 9.03153 3.56338 1.70965
242 1 9.58423 3.89917 0.0502733
243 1 9.14064 3.99876 2.69727
244 1 9.64256 3.31113 0.752239
245 1 10.077 3.43809 1.6566
246 1 10.7636 3.98374 12.8498
247 1 10.162 4.17608 2.52427
248 1 10.6774 3.56928 0.793744
249 1 11.2339 3.52832 1.47391
250 1 11.9016 4.21357 12.8375
251 1 11.3043 4.18297 2.24606
252 1 11.8546 3.75409 0.80237
253 1 12.4279 3.45005 1.47632
254 1 12.918 4.09638 0.0362585
255 1 12.377 4.11612 2.35751
256 1 13.1327 3.49055 0.79977
257 1 9.47121 0.629456 3.40618
258 1 9.50223 13.4087 4.10247
259 1 10.4664 0.784 3.18314
260 1 10.6172 0.269426 4.11275
261 1 11.7262 0.957812 3.19258
262 1 11.7498 0.331363 3.99232
263 1 12.7666 0.592924 3.21116
264 1 12.8338 0.0392379 4.06607
265 1 9.51594 1.77069 3.3284
266 1 9.58166 1.22014 4.09564
267 1 10.6932 1.83919 3.3565
268 1 10.7444 1.2057 4.11249
269 1 11.8007 1.89643 3.21779
270 1 11.8091 1.50743 4.13987
271 1 12.9249 1.85171 3.16176
272 1 12.9369 1.3154 3.91441
273 1 9.65577 2.79555 3.21141
274 1 9.5612 2.37012 4.21431
275 1 10.738 3.04299 3.24931
276 1 10.6973 2.38315 3.986
277 1 11.8738 3.15647 3.24124
278 1 11.8896 2.52531 3.98968
279 1 12.9386 2.92862 3.16864
280 1 12.9531 2.44193 3.9806
281 1 9.64602 4.14035 3.39687
282 1 9.61014 3.33809 4.05247
283 1 10.8016 4.18519 3.1412
284 1 10.634 3.59687 4.02162
285 1 11.8536 4.23365 3.25274
286 1 11.8087 3.69143 4.06088
287 1 12.9748 4.01539 3.27836
288 1 12.9421 3.56556 4.04303
289 1 0.183867 4.5992 1.55963
290 1 0.682762 5.05038 0.0296011
291 1 0.0156992 5.02392 2.36478
292 1 0.771269 4.48986 0.77684
293 1 1.31044 4.41711 1.62853
294 1 1.77371 5.21712 0.0397148
295 1 1.20198 5.12416 2.52409
296 1 1.80819 4.45845 0.700163
297 1 2.37352 4.45321 1.70157
298 1 2.8926 5.0098 12.9224
299 1 2.145 5.12528 2.3233
300 1 2.82796 4.47664 0.821655
301 1 3.5231 4.33547 1.67497
302 1 3.953 4.84984 0.0817569
303 1 3.42615 4.95837 2.50046
304 1 3.99448 4.26919 0.836105
305 1 0.167188 5.7172 1.71351
306 1 0.644402 6.21605 12.8806
307 1 0.177524 6.32788 2.5091
308 1 0.677105 5.76983 0.72075
309 1 1.16097 5.50847 1.63911
310 1 1.90767 6.19275 12.9433
311 1 1.26684 6.204 2.43285
312 1 1.7266 5.59379 0.915493
313 1 2.48781 5.58851 1.55888
314 1 2.95894 6.1782 12.94
315 1 2.43051 6.1564 2.38637
316 1 2.95469 5.54575 0.857564
317 1 3.63198 5.36765 1.70798
318 1 4.06859 5.9813 12.93
319 1 3.57385 6.12852 2.25746
320 1 3.99602 5.54395 0.77677
321 1 0.181957 6.78939 1.59398
322 1 0.614774 7.26916 12.877
323 1 13.4176 7.42614 2.43714
324 1 0.72432 6.81133 0.792611
325 1 1.26195 6.7128 1.62536
326 1 1.72544 7.31441 0.0184268
327 1 1.14962 7.30919 2.35974
328 1 1.94494 6.64924 0.814476
329 1 2.31543 6.74833 1.65111
330 1 2.86176 7.31828 12.9246
331 1 2.44493 7.28736 2.40651
332 1 2.99441 6.63479 0.84385
333 1 3.46429 6.67157 1.57191
334 1 3.99434 7.09935 12.9516
335 1 3.55963 7.19227 2.4449
336 1 4.11401 6.51054 0.777496
337 1 0.0782611 7.88781 1.56258
338 1 0.435351 8.38937 12.9413
339 1 13.3781 8.47955 2.46455
340 1 0.741433 7.8591 0.747328
341 1 1.2203 7.89515 1.66776
342 1 1.6045 8.32608 12.7964
343 1 1.06697 8.42549 2.43495
344 1 1.7963 7.7353 0.804573
345 1 2.31624 7.86505 1.63178
346 1 2.92049 8.32145 0.00512192
347 1 2.1853 8.45827 2.32166
348 1 2.9136 7.66276 0.857643
349 1 3.4594 7.80635 1.67573
350 1 3.98844 8.1221 12.9397
351 1 3.48356 8.27284 2.49163
352 1 4.06943 7.6767 0.8701
353 1 0.563409 5.10665 3.19876
354 1 0.739349 4.57626 3.96901
355 1 1.81025 4.99522 3.29639
356 1 1.79048 4.48059 4.01936
357 1 2.847 4.95626 3.08719
358 1 2.87662 4.32044 4.05347
359 1 4.09497 4.99301 3.1204
360 1 4.03489 4.3849 3.98848
361 1 0.759258 6.2427 3.31395
362 1 0.68547 5.67956 3.97896
363 1 1.83344 6.23887 3.23294
364 1 1.85325 5.60524 3.95307
365 1 2.99656 6.04251 3.22734
366 1 3.00456 5.39615 3.98027
367 1 3.99462 6.00523 3.27837
368 1 4.17448 5.33664 4.07298
369 1 0.700358 7.35584 3.23818
370 1 0.565364 6.79886 4.10108
371 1 1.81295 7.29652 3.10378
372 1 1.78863 6.72302 3.97505
373 1 3.02664 7.16727 3.36774
374 1 2.805 6.49867 4.07216
375 1 4.04234 7.14606 3.29499
376 1 4.08918 6.4654 4.16244
377 1 0.573777 8.44415 3.16897
378 1 0.761879 7.96099 4.0139
379 1 1.78506 8.43895 3.16442
380 1 1.71895 7.73012 4.01952
381 1 2.87733 8.24447 3.18054
382 1 2.82837 7.7265 3.99467
383 1 4.09396 8.16071 3.17948
384 1 3.99642 7.53869 4.1185
385 1 4.59721 4.25658 1.62814
386 1 5.22086 4.81347 12.908
387 1 4.75843 4.92534 2.4888
388 1 5.08562 4.30947 0.778506
389 1 5.73877 4.30809 1.55542
390 1 6.32268 4.76392 0.0766142
391 1 5.80676 4.85696 2.48213
392 1 6.1739 4.23499 0.858775
393 1 6.89434 4.26498 1.53266
394 1 7.30372 5.03474 12.9041
395 1 6.84504 4.81986 2.41354
396 1 7.41442 4.3289 0.703373
397 1 7.9568 4.429 1.73193
398 1 8.56254 5.06295 12.9207
399 1 7.98329 5.07415 2.48612
400 1 8.45281 4.52658 0.821574
401 1 4.68224 5.33189 1.54146
402 1 5.21258 5.85321 12.7575
403 1 4.63273 5.97963 2.41113
404 1 5.17739 5.36397 0.759926
405 1 5.82287 5.47481 1.68272
406 1 6.45349 5.94587 12.8747
407 1 5.74546 5.96703 2.46638
408 1 6.30324 5.45919 0.794325
409 1 6.80412 5.25819 1.56377
410 1 7.54435 6.03885 0.101861
411 1 6.95955 5.94013 2.49927
412 1 7.51432 5.4106 0.873865
413 1 7.9649 5.55306 1.60282
414 1 8.56325 6.15175 12.9314
415 1 8.10479 6.12449 2.43903
416 1 8.5954 5.64199 0.840648
417 1 4.62939 6.44495 1.55661
418 1 5.16814 6.9715 12.9507
419 1 4.55486 7.01901 2.39766
420 1 5.23108 6.42213 0.78796
421 1 5.72502 6.57891 1.67617
422 1 6.24939 7.11528 12.8548
423 1 5.71514 7.07553 2.50476
424 1 6.3237 6.53605 0.705558
425 1 6.77602 6.41435 1.6702
426 1 7.47453 7.16086 12.8684
427 1 6.76507 7.01709 2.278
428 1 7.36531 6.61339 0.757825
429 1 7.85563 6.61101 1.53924
430 1 8.58066 7.17208 0.0555138
431 1 8.00453 7.1395 2.32996
432 1 8.61449 6.759 0.943312
433 1 4.60699 7.61358 1.65801
434 1 5.08933 8.13454 0.0883304
435 1 4.62426 8.19284 2.42463
436 1 5.11704 7.53978 0.765659
437 1 5.67427 7.63521 1.53697
438 1 6.11897 8.21878 12.9375
439 1 5.66599 8.23262 2.40238
440 1 6.35596 7.60399 0.722935
441 1 6.83168 7.65744 1.65161
442 1 7.24518 8.27586 12.8516
443 1 6.80869 8.21883 2.40425
444 1 7.3475 7.63177 0.792945
445 1 7.83928 7.81852 1.68421
446 1 8.49254 8.35823 0.0680493
447 1 7.81118 8.40446 2.47699
448 1 8.41403 7.82605 0.786869
449 1 5.27134 4.85282 3.37038
450 1 5.17397 4.28339 4.13894
451 1 6.28723 4.89711 3.47375
452 1 6.25233 4.20733 4.07777
453 1 7.3652 4.94501 3.24457
454 1 7.41613 4.5114 4.1378
455 1 8.51173 5.01387 3.25502
456 1 8.4713 4.50217 4.08066
457 1 5.06748 6.03845 3.26219
458 1 5.22136 5.43161 4.10613
459 1 6.30676 5.9534 3.17719
460 1 6.37773 5.57627 4.07465
461 1 7.47439 6.07872 3.23488
462 1 7.48398 5.55899 4.04942
463 1 8.57076 6.12618 3.35409
464 1 8.46991 5.59755 4.25991
465 1 5.17156 7.11586 3.305
466 1 5.23884 6.53565 3.96974
467 1 6.2644 7.16449 3.22116
468 1 6.35449 6.63354 4.02678
469 1 7.30152 7.1294 3.16673
470 1 7.27087 6.75072 4.10762
471 1 8.3269 7.27692 3.26416
472 1 8.54747 6.80435 4.1171
473 1 5.06826 8.28243 3.2934
474 1 5.20538 7.77791 4.13796
475 1 6.16105 8.20449 3.26557
476 1 6.20932 7.74447 4.08573
477 1 7.30006 8.15891 3.1974
478 1 7.28385 7.85848 4.12613
479 1 8.35286 8.41028 3.30608
480 1 8.4802 7.92561 4.04316
481 1 9.16025 4.48733 1.57042
482 1 9.58461 5.03199 12.9308
483 1 9.11808 5.03613 2.39638
484 1 9.777 4.58165 0.825265
485 1 10.258 4.51355 1.5882
486 1 10.5992 5.25512 12.8025
487 1 10.0723 5.26452 2.3479
488 1 10.9152 4.6811 0.686777
489 1 11.2109 4.86408 1.61017
490 1 11.9036 5.22906 12.7965
491 1 11.4261 5.3445 2.44159
492 1 11.9131 4.82702 0.681818
493 1 12.4024 4.62367 1.54406
494 1 13.0141 5.07103 12.8926
495 1 12.4626 5.35147 2.26569
496 1 13.0491 4.66054 0.928402
497 1 9.0123 5.59607 1.60865
498 1 9.71621 6.19443 0.0704576
499 1 9.13073 6.22905 2.33973
500 1 9.6739 5.66752 0.818008
501 1 10.3079 5.69262 1.53418
502 1 10.7616 6.31204 12.9065
503 1 10.1352 6.37976 2.28225
504 1 10.9297 5.75357 0.727559
505 1 11.3708 5.96301 1.47736
506 1 11.8077 6.28883 0.02104
507 1 11.3007 6.39135 2.42412
508 1 12.0478 5.71242 0.838149
509 1 12.509 5.927 1.65532
510 1 12.9699 6.30697 0.0123099
511 1 12.4884 6.50785 2.65758
512 1 13.1404 5.72604 0.734694
513 1 9.14606 6.87458 1.63379
514 1 9.63607 7.28248 12.9162
515 1 8.93064 7.47781 2.52077
516 1 9.6557 6.68866 0.813162
517 1 10.2641 6.91662 1.50564
518 1 10.7226 7.57847 12.8385
519 1 10.0946 7.46371 2.43785
520 1 10.8088 6.96443 0.626716
521 1 11.3206 6.98561 1.61009
522 1 11.8482 7.52914 0.15263
523 1 11.2712 7.56225 2.40295
524 1 11.9069 6.94605 0.747275
525 1 12.3845 6.90362 1.70193
526 1 12.9792 7.39503 0.0171222
527 1 12.472 7.55511 2.47382
528 1 12.9664 6.84985 0.896211
529 1 8.94241 7.90847 1.61399
530 1 9.43092 8.46593 12.8504
531 1 8.87916 8.56342 2.45979
532 1 9.59229 7.89797 0.72439
533 1 9.92685 8.07652 1.63243
534 1 10.529 8.4798 0.147477
535 1 9.99913 8.50676 2.37984
536 1 10.644 8.01666 0.940848
537 1 11.0982 8.1077 1.69571
538 1 11.5993 8.64958 0.0172444
539 1 11.263 8.67972 2.48221
540 1 11.7457 8.14139 0.876976
541 1 12.2923 7.93584 1.5401
542 1 12.7142 8.51701 0.109611
543 1 12.2071 8.59962 2.43398
544 1 12.9854 7.95332 0.888911
545 1 9.59059 5.34428 3.26708
546 1 9.54728 4.72035 3.98606
547 1 10.7253 5.17638 3.01026
548 1 10.626 4.6336 3.97484
549 1 11.9003 5.27955 3.19383
550 1 11.7598 4.84067 4.11306
551 1 12.9339 5.1425 3.25696
552 1 13.0811 4.61622 4.08744
553 1 9.57153 6.40357 3.23427
554 1 9.81491 5.82337 4.0385
555 1 10.5414 6.29851 3.18922
556 1 10.8422 5.66803 3.87306
557 1 11.7907 6.39548 3.19434
558 1 11.9237 5.85207 4.05931
559 1 13.0874 6.20847 3.19859
560 1 13.0145 5.84675 4.12367
561 1 9.51078 7.43702 3.17112
562 1 9.65308 6.97539 4.13588
563 1 10.7712 7.32244 3.14456
564 1 10.8601 6.86789 3.98407
565 1 11.9322 7.53731 3.21177
566 1 11.8642 7.00321 4.02724
567 1 13.0594 7.40615 3.35967
568 1 12.8096 6.80385 4.0193
569 1 9.54576 8.68447 3.097
570 1 9.56175 8.03366 3.97251
571 1 10.6223 8.55451 3.20641
572 1 10.6355 7.94432 3.8373
573 1 11.7379 8.60988 3.37953
574 1 11.8701 8.0017 4.07526
575 1 12.8112 8.64905 3.24499
576 1 13.1182 8.10503 4.05389
577 1 0.00381262 8.98179 1.67942
578 1 0.404451 9.51806 0.0613301
579 1 13.4033 9.63441 2.39213
580 1 0.468865 8.86296 0.830586
581 1 1.16053 8.96993 1.61676
582 1 1.50606 9.52364 12.9369
583 1 0.97628 9.54294 2.43652
584 1 1.61818 8.89916 0.674247
585 1 2.30674 9.05163 1.56649
586 1 2.63128 9.50522 0.00207237
587 1 2.14375 9.4602 2.52458
588 1 2.69877 8.85793 0.653478
589 1 3.29208 8.73988 1.56723
590 1 3.95909 9.30497 0.025926
591 1 3.3212 9.33464 2.46309
592 1 3.84657 8.74295 0.851367
593 1 13.2079 10.2217 1.5928
594 1 0.421536 10.6606 0.0326617
595 1 13.2764 10.7427 2.51773
596 1 0.423495 10.0163 0.820438
597 1 0.902367 10.0186 1.53131
598 1 1.49918 10.6865 0.0380065
599 1 0.929094 10.6051 2.27981
600 1 1.64933 10.0241 0.836759
601 1 2.01983 10.0505 1.73469
602 1 2.73628 10.5617 0.0122151
603 1 2.01252 10.6372 2.41397
604 1 2.72801 10.0661 0.773215
605 1 3.17861 9.7993 1.62564
606 1 3.83998 10.4363 0.0787061
607 1 3.20316 10.4038 2.40219
608 1 3.774 9.95313 0.870723
609 1 13.2903 11.1696 1.52313
610 1 0.432655 11.888 0.0854324
611 1 13.3952 11.7386 2.47144
612 1 0.533145 11.2417 0.788388
613 1 0.965991 11.1111 1.56057
614 1 1.53537 11.8344 0.00090979
615 1 0.905385 11.7546 2.38677
616 1 1.5416 11.2143 0.803717
617 1 2.05476 11.2488 1.59588
618 1 2.64107 11.577 0.0223641
619 1 1.99056 11.8148 2.44837
620 1 2.73002 11.0838 0.919374
621 1 3.28966 11.0045 1.6606
622 1 3.75401 11.492 0.0418502
623 1 3.15756 11.5984 2.45473
624 1 3.94114 11.0079 0.911676
625 1 13.2863 12.1846 1.55506
626 1 0.449373 12.875 12.8727
627 1 13.2894 12.868 2.21284
628 1 0.437135 12.4124 0.993118
629 1 1.0973 12.3286 1.74171
630 1 1.57345 12.8904 0.106753
631 1 0.883633 12.9729 2.46727
632 1 1.53475 12.3766 0.959908
633 1 2.264 12.3425 1.61726
634 1 2.83002 12.8313 0.0759671
635 1 2.07389 12.8135 2.60593
636 1 2.71068 12.1718 0.703823
637 1 3.1953 12.1321 1.53752
638 1 3.8849 12.7558 0.0400065
639 1 3.26421 12.6363 2.39278
640 1 3.83146 12.0896 0.83537
641 1 0.467505 9.61338 3.29206
642 1 0.503795 9.01449 4.03877
643 1 1.52026 9.5835 3.21087
644 1 1.63056 8.97325 3.98928
645 1 2.83909 9.36328 3.25722
646 1 2.71025 8.78264 4.03621
647 1 3.81125 9.37551 3.4009
648 1 3.85363 8.72559 3.92117
649 1 0.420919 10.7327 3.15555
650 1 0.334797 10.1483 4.0757
651 1 1.42167 10.6933 3.25854
652 1 1.58068 10.0827 3.96914
653 1 2.50436 10.6054 3.23103
654 1 2.62782 10.0008 4.03162
655 1 3.6461 10.4019 3.25414
656 1 3.82076 10.0252 4.1746
657 1 0.406409 11.9694 3.45496
658 1 0.431583 11.2412 3.9966
659 1 1.4695 11.6956 3.23751
660 1 1.54726 11.1764 4.18796
661 1 2.66509 11.6145 3.17286
662 1 2.57825 11.165 4.04172
663 1 3.65368 11.5759 3.22222
664 1 3.7655 11.0938 3.97234
665 1 0.31514 12.8402 3.17222
666 1 0.386205 12.5662 4.20753
667 1 1.45452 12.8971 3.20846
668 1 1.51289 12.2417 3.89472
669 1 2.7067 12.7975 3.14678
670 1 2.51084 12.241 4.03543
671 1 3.76624 12.7104 3.2127
672 1 3.65781 12.2428 4.02265
673 1 4.54204 8.75858 1.57561
674 1 4.93281 9.3176 0.137221
675 1 4.29621 9.30881 2.4358
676 1 5.07909 8.71208 0.802559
677 1 5.65953 8.83787 1.7089
678 1 6.11361 9.23922 12.9012
679 1 5.41761 9.39922 2.44767
680 1 6.10178 8.68879 0.918292
681 1 6.75487 8.79849 1.63788
682 1 7.15226 9.3712 12.9388
683 1 6.60649 9.29239 2.58689
684 1 7.07194 8.72055 0.800997
685 1 7.70452 8.98195 1.62686
686 1 8.25706 9.43829 12.9214
687 1 7.65438 9.48389 2.50758
688 1 8.10717 8.92286 0.765749
689 1 4.39142 9.78319 1.65681
690 1 4.8809 10.3561 12.9197
691 1 4.31516 10.4685 2.55575
692 1 4.91763 9.90513 0.88193
693 1 5.51237 9.92139 1.54652
694 1 5.99366 10.3434 12.91
695 1 5.454 10.4686 2.43613
696 1 6.02083 9.82623 0.780508
697 1 6.62102 9.8305 1.63761
698 1 7.10297 10.4681 12.9035
699 1 6.55426 10.2814 2.4746
700 1 7.08222 9.95208 0.758026
701 1 7.64079 10.0338 1.49248
702 1 8.28559 10.6172 0.0491969
703 1 7.64261 10.5846 2.43763
704 1 8.15213 10.0417 0.735356
705 1 4.34678 10.9434 1.73793
706 1 4.98116 11.5109 12.8683
707 1 4.39605 11.5265 2.54511
708 1 4.97264 10.9586 0.699041
709 1 5.37962 11.0073 1.64322
710 1 6.03346 11.5343 0.00332649
711 1 5.4504 11.578 2.51067
712 1 6.0488 10.899 0.740049
713 1 6.46911 10.8501 1.66111
714 1 7.08293 11.6935 0.095918
715 1 6.54773 11.44 2.39385
716 1 7.09317 11.0536 0.823817
717 1 7.5809 11.1815 1.65189
718 1 8.20683 11.7496 0.0805256
719 1 7.58976 11.7432 2.36445
720 1 8.23603 11.2247 0.886611
721 1 4.20259 12.1448 1.71253
722 1 4.92978 12.6583 0.0179309
723 1 4.3199 12.7436 2.41259
724 1 4.84931 11.9788 0.788922
725 1 5.28719 12.1026 1.59148
726 1 6.02645 12.4999 0.0862922
727 1 5.458 12.5783 2.44648
728 1 6.05847 11.9705 0.9751
729 1 6.6238 12.1182 1.5981
730 1 7.33287 12.8434 12.945
731 1 6.62927 12.5332 2.44909
732 1 7.27819 12.1728 0.847364
733 1 7.88937 12.2555 1.62098
734 1 8.39607 12.8726 0.101952
735 1 7.69075 12.7958 2.55332
736 1 8.4732 12.44 0.859673
737 1 4.88401 9.31582 3.28061
738 1 5.00961 8.73738 4.16253
739 1 6.03062 9.29125 3.34935
740 1 6.12386 8.81657 4.24266
741 1 7.1592 9.24 3.36507
742 1 7.20766 8.94478 4.15443
743 1 8.25256 9.54091 3.20405
744 1 8.39372 9.04694 4.11769
745 1 4.91851 10.421 3.26787
746 1 4.85989 9.76487 4.11582
747 1 5.9437 10.4421 3.2277
748 1 5.91164 9.87928 4.13025
749 1 7.17744 10.5311 3.30088
750 1 7.06994 10.0147 3.99818
751 1 8.29071 10.5487 3.28353
752 1 8.18934 10.0471 4.10249
753 1 4.90602 11.5646 3.33119
754 1 4.8911 10.9413 3.99392
755 1 6.04701 11.4684 3.29088
756 1 6.00315 11.0055 4.08908
757 1 7.03511 11.5806 3.27341
758 1 7.22428 11.0592 4.09544
759 1 8.16691 11.668 3.12683
760 1 8.28476 11.1578 4.00778
761 1 4.85178 12.7573 3.27417
762 1 4.74402 12.1235 4.02904
763 1 5.94702 12.6501 3.22707
764 1 5.89842 12.0777 4.10037
765 1 7.16406 12.71 3.2155
766 1 7.07835 12.144 4.03311
767 1 8.32265 12.8277 3.39591
768 1 8.18551 12.2287 4.02575
769 1 8.81622 8.96645 1.49693
770 1 9.36637 9.54445 12.8344
771 1 8.89037 9.63559 2.25063
772 1 9.43014 9.0449 0.811798
773 1 10.0418 9.15287 1.67443
774 1 10.5015 9.66778 0.034032
775 1 9.9299 9.80254 2.35824
776 1 10.4547 9.12026 0.811194
777 1 11.105 9.15877 1.68037
778 1 11.621 9.70745 0.0480409
779 1 10.9623 9.78075 2.48943
780 1 11.6183 9.1647 0.894039
781 1 12.2866 9.12979 1.57139
782 1 12.7087 9.70325 12.8288
783 1 12.1599 9.63781 2.48326
784 1 12.7788 9.15135 0.818779
785 1 8.72725 10.1853 1.53625
786 1 9.34078 10.678 0.045474
787 1 8.76646 10.823 2.41227
788 1 9.40763 10.0814 0.805897
789 1 9.90446 10.2995 1.50242
790 1 10.5144 10.8416 0.089517
791 1 9.91088 10.833 2.55118
792 1 10.6329 10.2577 0.777555
793 1 11.0497 10.1949 1.63235
794 1 11.6553 10.7542 12.8145
795 1 11.0178 10.9065 2.26383
796 1 11.7254 10.3839 0.817919
797 1 12.0847 10.2163 1.7221
798 1 12.7477 10.706 0.0463078
799 1 12.2283 10.8825 2.39306
800 1 12.7215 10.1143 0.804501
801 1 8.77778 11.3047 1.66278
802 1 9.46867 11.9292 0.0201492
803 1 8.88779 11.8831 2.4759
804 1 9.28879 11.4442 0.733924
805 1 9.77581 11.3191 1.66625
806 1 10.728 11.8592 0.0899193
807 1 10.1516 11.7997 2.47208
808 1 10.2716 11.4694 0.951372
809 1 11.0131 11.4739 1.53027
810 1 11.6476 11.8214 12.913
811 1 11.1601 12.0282 2.47721
812 1 11.6826 11.3886 0.782366
813 1 12.1425 11.4553 1.7312
814 1 12.8803 11.8039 12.9137
815 1 12.3178 12.0778 2.35361
816 1 12.6956 11.3431 0.743708
817 1 9.02987 12.4448 1.77045
818 1 9.44361 12.956 12.9519
819 1 8.78005 13.0642 2.42935
820 1 9.44753 12.6005 0.870782
821 1 10.0095 12.4509 1.72505
822 1 10.6662 13.0254 12.9154
823 1 9.99452 13.0195 2.46273
824 1 10.4719 12.6847 0.760641
825 1 11.0358 12.5002 1.54866
826 1 11.848 13.1509 0.0858184
827 1 11.2419 13.0357 2.51367
828 1 11.5737 12.504 0.685042
829 1 12.1174 12.5171 1.53344
830 1 12.8056 12.9576 0.0275321
831 1 12.3145 13.0643 2.48896
832 1 12.6612 12.3553 0.831495
833 1 9.23034 9.69348 3.27487
834 1 9.45663 9.13902 3.98065
835 1 10.4175 9.65484 3.18517
836 1 10.6283 9.15552 4.05065
837 1 11.5453 9.76934 3.22462
838 1 11.7454 9.38312 4.05471
839 1 12.8124 9.60983 3.20449
840 1 12.7391 9.19591 4.03701
841 1 9.34425 10.6864 3.20487
842 1 9.43118 10.24 4.18749
843 1 10.5726 10.7328 3.39511
844 1 10.4331 10.1276 4.04995
845 1 11.5186 10.8544 3.12835
846 1 11.5815 10.4166 4.08585
847 1 12.6072 10.7414 3.2696
848 1 12.7474 10.3205 4.01
849 1 9.42048 11.9435 3.13286
850 1 9.41265 11.3264 3.9078
851 1 10.5521 11.9158 3.36005
852 1 10.4282 11.3115 4.17209
853 1 11.6854 11.8827 3.2818
854 1 11.7149 11.4553 4.13827
855 1 12.6882 11.8917 3.21562
856 1 12.8385 11.3968 4.12679
857 1 9.35298 13.0338 3.1947
858 1 9.36777 12.401 4.09027
859 1 10.5767 13.1968 3.17014
860 1 10.4575 12.5534 3.89551
861 1 11.7295 13.177 3.29671
862 1 11.5486 12.5732 3.97116
863 1 12.7795 12.8702 3.32957
864 1 12.6974 12.4216 4.23463
865 1 13.3823 0.0921373 4.79128
866 1 0.0462023 0.664398 5.64978
867 1 1.14997 0.0348202 4.99689
868 1 1.22275 0.621668 5.57159
869 1 2.14843 13.3109 4.83551
870 1 2.30449 0.503425 5.71352
871 1 3.04261 13.4188 4.85296
872 1 3.38943 0.450082 5.62569
873 1 0.0148191 1.21285 4.87678
874 1 13.4263 1.79352 5.61737
875 1 1.13372 1.18724 4.75658
876 1 1.11921 1.74192 5.54634
877 1 2.35754 0.975834 4.8028
878 1 2.20929 1.57299 5.54157
879 1 3.56282 1.07682 4.92572
880 1 3.35193 1.57254 5.6969
881 1 0.0637608 2.23525 4.72266
882 1 0.0467685 2.83277 5.61109
883 1 1.14649 2.29871 4.69226
884 1 1.19919 2.78621 5.59309
885 1 2.28773 2.24038 5.01849
886 1 2.27135 2.87892 5.77385
887 1 3.38997 2.10222 4.90668
888 1 3.40943 2.66576 5.59831
889 1 0.0915635 3.33543 4.7657
890 1 0.0840456 3.87195 5.60191
891 1 1.31725 3.46478 4.83527
892 1 1.25478 3.99377 5.65904
893 1 2.3478 3.33372 4.81905
894 1 2.44907 3.87781 5.73551
895 1 3.36484 3.21886 4.86734
896 1 3.57037 3.79333 5.69211
897 1 13.2464 0.0440247 8.05282
898 1 0.593806 0.598536 6.42152
899 1 0.371597 0.262273 7.37069
900 1 1.01568 0.0713785 8.02524
901 1 1.5167 0.551046 6.54775
902 1 1.53537 13.3995 7.20291
903 1 2.20922 0.019483 8.10236
904 1 2.74203 0.542769 6.54896
905 1 2.6918 13.2793 7.2039
906 1 3.20135 13.312 8.07873
907 1 3.8774 0.408218 6.53638
908 1 3.82344 13.3295 7.34121
909 1 0.00531286 1.29501 8.16121
910 1 0.65579 1.80796 6.41893
911 1 0.5726 1.24561 7.18695
912 1 1.035 1.17219 8.02452
913 1 1.70066 1.67286 6.43321
914 1 1.67638 1.14123 7.29751
915 1 2.2527 1.12798 7.99199
916 1 2.85113 1.59932 6.50028
917 1 2.86173 1.05946 7.28027
918 1 3.32342 0.912625 8.11274
919 1 4.06412 1.45211 6.48349
920 1 3.99118 1.00771 7.38048
921 1 13.3849 2.39255 8.1024
922 1 0.643956 2.94156 6.36505
923 1 0.561881 2.26986 7.39755
924 1 1.15777 2.25569 8.15797
925 1 1.73055 2.71085 6.4636
926 1 1.73307 2.26263 7.3306
927 1 2.25921 2.22893 8.09751
928 1 2.87658 2.69599 6.46158
929 1 2.85494 2.23728 7.21425
930 1 3.35505 2.04787 8.14514
931 1 3.95916 2.57496 6.46981
932 1 3.92981 2.01419 7.22966
933 1 0.216684 3.47971 8.13383
934 1 0.615917 4.0585 6.4212
935 1 0.724168 3.37796 7.10706
936 1 1.26875 3.41132 8.01742
937 1 1.83105 3.85529 6.38268
938 1 1.88949 3.4418 7.24729
939 1 2.40129 3.30053 8.15963
940 1 3.09189 3.82215 6.47489
941 1 2.97818 3.28552 7.25335
942 1 3.5774 3.20357 7.93003
943 1 4.20619 3.75184 6.42071
944 1 4.1289 3.11449 7.16189
945 1 4.23074 13.1471 4.78144
946 1 4.44637 0.214981 5.65453
947 1 5.51154 13.2692 4.81716
948 1 5.719 0.361987 5.69016
949 1 6.61403 13.28 4.78281
950 1 6.75229 0.463912 5.59105
951 1 7.71128 13.2949 4.75562
952 1 7.7687 0.535069 5.55663
953 1 4.50878 0.738365 4.91799
954 1 4.49433 1.40171 5.64284
955 1 5.55301 0.928323 4.81706
956 1 5.6241 1.38002 5.6468
957 1 6.61086 0.989314 4.82807
958 1 6.68737 1.56552 5.83677
959 1 7.85451 1.15762 4.68768
960 1 7.90297 1.48152 5.6003
961 1 4.43643 1.99714 4.87601
962 1 4.60933 2.5725 5.67847
963 1 5.60766 2.0721 4.99531
964 1 5.7785 2.65529 5.66282
965 1 6.82155 2.04762 4.92781
966 1 6.73983 2.65559 5.7228
967 1 7.84913 2.2392 4.86528
968 1 7.94696 2.72541 5.76111
969 1 4.49111 3.1179 4.75546
970 1 4.66491 3.63683 5.47208
971 1 5.69792 3.23873 4.89271
972 1 5.81576 3.73882 5.68689
973 1 6.92305 3.21859 4.98511
974 1 6.94853 3.79531 5.71521
975 1 7.95796 3.31107 4.95648
976 1 8.07152 3.81634 5.73899
977 1 4.47344 13.2994 8.07755
978 1 5.03053 0.379077 6.36439
979 1 4.92033 13.3561 7.27731
980 1 5.55469 13.2088 8.18412
981 1 6.20378 0.410364 6.5291
982 1 5.96093 13.1379 7.41093
983 1 6.6109 13.2789 8.04928
984 1 7.20683 0.477801 6.41874
985 1 7.22921 13.3055 7.15382
986 1 7.65779 0.0614833 8.09174
987 1 8.33649 0.535451 6.52023
988 1 8.42013 0.0124616 7.34232
989 1 4.4858 0.938003 8.24399
990 1 5.09104 1.54621 6.4757
991 1 5.11261 0.890701 7.21248
992 1 5.53472 0.94982 8.19723