data.lammps (converted from cfg to data.lammps)
    
2298  atoms
1  atom types
0.0   13.4375  xlo xhi
0.0   13.4375  ylo yhi
0.0   12.952  zlo zhi
0.0  0.0 0.0 xy xz yz
    
    
    
Atoms
  
1 1 0.157278 13.2521 1.65436
2 1 0.606428 0.268273 12.8722
3 1 0.0228218 0.384502 2.4048
4 1 0.556656 13.1878 0.766876
5 1 1.24825 13.092 1.51518
6 1 1.70773 0.211111 12.8389
7 1 1.01974 0.158386 2.39376
8 1 1.73535 13.2238 0.874026
9 1 2.29017 13.0911 1.75519
10 1 2.73688 0.254001 12.9266
11 1 2.21566 0.191424 2.50964
12 1 2.72316 13.1078 0.836921
13 1 3.29703 13.1105 1.66552
14 1 3.87218 0.345806 0.0169973
15 1 3.36013 0.257605 2.4124
16 1 3.91268 13.2241 0.765591
17 1 0.115298 0.916861 1.52563
18 1 0.502051 1.49457 12.9265
19 1 13.4174 1.39993 2.40352
20 1 0.648464 0.8954 0.727562
21 1 1.18991 0.800722 1.56003
22 1 1.69382 1.34183 12.7443
23 1 1.12799 1.24019 2.40249
24 1 1.72206 0.899203 0.668815
25 1 2.15328 0.752856 1.74406
26 1 2.87666 1.19401 0.0150138
27 1 2.23061 1.5268 2.35523
28 1 2.72476 0.900286 0.959042
29 1 3.3571 0.767778 1.61773
30 1 3.86328 1.46539 12.9322
31 1 3.31814 1.39339 2.41043
32 1 3.88363 0.893981 0.829305
33 1 13.3926 2.01342 1.71061
34 1 0.549289 2.57445 12.8627
35 1 13.3978 2.57167 2.37897
36 1 0.543501 2.01292 0.881873
37 1 1.07194 1.90032 1.71421
38 1 1.62308 2.53622 12.9191
39 1 1.08794 2.57511 2.42217
40 1 1.5227 1.91089 0.735464
41 1 2.10692 1.91124 1.56942
42 1 2.70762 2.38947 12.9429
43 1 2.20308 2.57866 2.45253
44 1 2.67746 1.90701 0.732009
45 1 3.32683 1.91222 1.60277
46 1 3.95248 2.6319 12.8946
47 1 3.26808 2.55523 2.45234
48 1 3.79081 2.09875 0.787755
49 1 13.4161 3.12227 1.69448
50 1 0.58215 3.60769 12.9032
51 1 13.3156 3.70882 2.51549
52 1 0.47653 3.04822 0.869082
53 1 1.19896 3.02489 1.53091
54 1 1.82524 3.68146 12.9448
55 1 1.11174 3.5916 2.39855
56 1 1.68118 3.06914 0.720315
57 1 2.29737 2.96144 1.55108
58 1 2.81872 3.68573 0.00908812
59 1 2.12329 3.62919 2.50778
60 1 2.8111 2.98417 0.80731
61 1 3.33583 3.01597 1.62155
62 1 3.90623 3.65735 0.0127
63 1 3.26799 3.78628 2.57575
64 1 3.96653 3.04519 0.742734
65 1 0.515555 0.298937 3.20094
66 1 0.668255 13.0793 4.06774
67 1 1.67301 0.161969 3.19769
68 1 1.75941 13.1547 4.02219
69 1 2.92701 0.221385 3.23511
70 1 2.72866 13.1932 4.10264
71 1 4.09537 0.347107 3.26848
72 1 3.94755 13.3118 4.12039
73 1 0.537058 1.37036 3.2534
74 1 0.447486 0.758333 3.99967
75 1 1.68952 1.27912 3.25415
76 1 1.55579 0.790515 4.12273
77 1 2.84122 1.28466 3.11037
78 1 2.70874 0.780533 3.99398
79 1 4.02004 1.42132 3.09256
80 1 3.75174 0.978226 4.04848
81 1 0.507596 2.46765 3.23468
82 1 0.633437 1.87867 4.13592
83 1 1.56955 2.35187 3.29413
84 1 1.66864 1.85855 4.04554
85 1 2.71489 2.42086 3.26933
86 1 2.79659 1.83365 4.01275
87 1 3.72184 2.3894 3.2846
88 1 3.9563 1.98546 4.00307
89 1 0.500008 3.61561 3.29889
90 1 0.518948 3.00762 4.11501
91 1 1.54013 3.56739 3.26815
92 1 1.64611 3.01136 4.02274
93 1 2.74849 3.49606 3.30026
94 1 2.82412 3.04233 4.0501
95 1 3.85296 3.52619 3.20034
96 1 4.00567 3.1402 4.02941
97 1 4.42357 13.1699 1.54236
98 1 5.09742 0.537844 12.8905
99 1 4.45012 0.309251 2.37981
100 1 5.01224 13.3697 0.751292
101 1 5.60793 0.0521141 1.56222
102 1 6.16718 0.709509 12.9434
103 1 5.66103 0.581048 2.48886
104 1 6.1714 0.189002 0.779422
105 1 6.76051 0.183508 1.73847
106 1 7.24346 0.803158 12.9249
107 1 6.72279 0.812269 2.37729
108 1 7.15728 0.262594 0.796064
109 1 7.9546 0.382524 1.60197
110 1 8.36874 0.879369 12.9459
111 1 7.82777 1.04441 2.27536
112 1 8.35831 0.36754 0.782705
113 1 4.57931 0.822755 1.49765
114 1 5.11834 1.65073 0.0607753
115 1 4.4202 1.37579 2.31899
116 1 4.99163 1.01214 0.759386
117 1 5.6423 1.10471 1.66217
118 1 6.21445 1.85169 0.0644146
119 1 5.56494 1.64197 2.46739
120 1 6.0329 1.29224 0.771922
121 1 6.71285 1.24344 1.51112
122 1 7.15924 2.02159 0.117513
123 1 6.68223 1.89395 2.33293
124 1 7.35125 1.29467 0.692238
125 1 7.93703 1.57642 1.58868
126 1 8.28888 2.06548 12.9472
127 1 7.77401 2.11822 2.41046
128 1 8.51364 1.53811 0.764142
129 1 4.42252 2.05267 1.63944
130 1 5.1885 2.70311 0.00704989
131 1 4.41636 2.57656 2.4381
132 1 4.97853 2.14316 0.911844
133 1 5.55611 2.24159 1.61527
134 1 6.31779 2.99154 0.0559669
135 1 5.54378 2.89864 2.35372
136 1 6.09403 2.55451 0.845842
137 1 6.69651 2.34302 1.50773
138 1 7.34729 3.04181 0.038455
139 1 6.69556 2.97375 2.36304
140 1 7.5146 2.53962 0.955334
141 1 8.04844 2.70572 1.57262
142 1 8.41397 3.19131 0.129124
143 1 7.65823 3.09162 2.42008
144 1 8.69236 2.57045 0.751712
145 1 4.45937 3.22452 1.62766
146 1 5.10546 3.81093 12.849
147 1 4.44906 3.79283 2.37788
148 1 4.87703 3.33629 0.808061
149 1 5.5473 3.30954 1.46962
150 1 6.18271 4.06777 0.0798357
151 1 5.68917 3.92491 2.47206
152 1 6.22479 3.6154 0.958461
153 1 7.25934 3.63933 0.800707
154 1 7.2251 4.12812 12.9421
155 1 6.79399 3.5918 1.71618
156 1 7.86173 3.74525 1.6648
157 1 7.86221 4.20303 2.44856
158 1 8.41894 4.35464 12.8807
159 1 8.41448 4.39932 3.09305
160 1 8.34247 3.72893 0.906416
161 1 5.14248 0.588806 3.17556
162 1 5.08963 0.00828246 3.85259
163 1 6.3222 0.674521 3.29263
164 1 6.14651 0.00234713 3.97358
165 1 7.40782 0.981165 3.10717
166 1 7.21238 0.423385 4.11308
167 1 8.38487 0.861316 3.1628
168 1 8.41161 0.399385 4.1238
169 1 5.06455 1.82077 3.18815
170 1 4.96685 1.16529 4.00464
171 1 6.17335 1.81483 3.30599
172 1 6.11081 1.22985 3.99144
173 1 7.21375 1.99894 3.28755
174 1 7.36532 1.41477 4.1006
175 1 8.38706 2.12983 3.28328
176 1 8.36621 1.45629 3.95374
177 1 4.90496 2.86185 3.12893
178 1 5.03464 2.28475 4.16074
179 1 6.14373 2.84763 3.21036
180 1 6.01547 2.39643 4.11271
181 1 7.26808 3.0937 3.28154
182 1 7.2742 2.44029 4.05047
183 1 8.3144 3.2667 3.1732
184 1 8.34817 2.65216 4.07079
185 1 5.11763 3.90878 3.2012
186 1 5.10898 3.4328 4.10055
187 1 6.56602 4.18407 2.58868
188 1 6.18947 3.53475 3.75734
189 1 7.25415 4.21486 3.11769
190 1 7.26688 3.67584 4.14903
191 1 8.42218 4.9645 4.07539
192 1 7.93683 3.71177 4.84332
193 1 9.04723 0.443342 1.65426
194 1 9.491 0.872118 12.9231
195 1 8.89235 0.933162 2.45492
196 1 9.47963 0.30653 0.81066
197 1 10.0828 0.273503 1.52178
198 1 10.7655 0.723573 0.0889885
199 1 10.1288 0.775639 2.36195
200 1 10.5989 0.106398 0.78232
201 1 11.1244 0.152779 1.64942
202 1 11.8291 0.686713 0.0559585
203 1 11.2284 0.756565 2.5767
204 1 11.7968 0.123338 0.936399
205 1 12.2664 13.4055 1.64668
206 1 12.8974 0.512354 0.0339135
207 1 12.3555 0.550873 2.31412
208 1 12.8985 13.3025 0.890037
209 1 9.0734 1.51248 1.62224
210 1 9.56425 2.02949 12.92
211 1 8.80663 1.96768 2.51979
212 1 9.54827 1.45277 0.790019
213 1 10.1496 1.44104 1.49014
214 1 10.6019 1.96146 0.0106598
215 1 10.0509 1.90438 2.4532
216 1 10.5532 1.40063 0.711128
217 1 11.123 1.21265 1.67881
218 1 11.7877 1.68196 0.0409836
219 1 11.1785 1.93402 2.51567
220 1 11.6869 1.25213 0.940121
221 1 12.3777 1.16325 1.6184
222 1 12.9643 1.54921 12.937
223 1 12.208 1.67415 2.34444
224 1 12.8265 1.03857 0.815606
225 1 9.12167 2.50273 1.73991
226 1 9.51732 3.19682 12.8497
227 1 8.85425 3.13121 2.35763
228 1 9.66477 2.59892 0.831094
229 1 10.1701 2.45245 1.67731
230 1 10.562 3.12261 0.0358294
231 1 9.97939 3.06735 2.51581
232 1 10.7694 2.559 0.700798
233 1 11.1542 2.36238 1.66235
234 1 11.7847 2.7103 12.8961
235 1 11.0319 3.11397 2.44341
236 1 11.7667 2.26627 0.881841
237 1 12.2353 2.38548 1.75933
238 1 12.9137 2.68561 0.0630909
239 1 12.3128 2.84991 2.5696
240 1 12.8542 2.08092 0.863566
241 1 9.10115 3.75102 1.53532
242 1 9.56926 4.32655 0.0560661
243 1 9.0286 4.16438 2.51173
244 1 9.47416 3.72836 0.721838
245 1 10.1459 3.58377 1.57043
246 1 10.6572 4.10536 12.808
247 1 10.0802 4.25615 2.35127
248 1 10.6861 3.70239 0.891021
249 1 11.2053 3.52756 1.68822
250 1 11.7203 3.96342 0.112548
251 1 11.1715 4.25962 2.42143
252 1 11.7895 3.36556 0.71841
253 1 12.2227 3.34548 1.57087
254 1 12.7858 3.71184 0.0387308
255 1 12.3137 4.02174 2.38196
256 1 12.973 3.3153 0.908974
257 1 9.53415 0.837593 3.20026
258 1 9.53989 0.297586 3.90586
259 1 10.5987 0.795867 3.24806
260 1 10.7442 0.237817 4.04654
261 1 11.8142 0.706344 3.33404
262 1 11.7616 0.0977867 4.03845
263 1 12.8156 0.399985 3.1763
264 1 12.8693 13.3607 4.15071
265 1 9.48692 2.02643 3.19258
266 1 9.44229 1.53759 3.96263
267 1 10.6272 1.90803 3.23882
268 1 10.5375 1.32158 4.01269
269 1 11.6843 1.80656 3.31978
270 1 11.6509 1.29019 4.16824
271 1 12.746 1.56611 3.1911
272 1 12.8724 1.02986 3.95228
273 1 9.43173 3.04342 3.24225
274 1 9.52958 2.67385 4.0678
275 1 10.5179 2.99895 3.26432
276 1 10.4944 2.58222 4.11387
277 1 11.6987 2.88265 3.1467
278 1 11.7401 2.33563 4.05137
279 1 12.9264 2.51244 3.27854
280 1 12.9064 2.10988 4.16553
281 1 9.53399 4.24587 3.31214
282 1 9.45902 3.7037 4.08711
283 1 10.5545 4.10002 3.17051
284 1 10.5846 3.75258 4.04179
285 1 11.6566 4.02531 3.19153
286 1 11.7437 3.44019 4.09484
287 1 12.7121 3.80234 3.25666
288 1 12.7995 3.20091 3.94526
289 1 0.0308164 4.26893 1.62843
290 1 0.514005 4.87308 0.134202
291 1 13.3153 4.89769 2.55476
292 1 0.689098 4.17612 0.714785
293 1 0.934281 4.19052 1.66324
294 1 1.67027 4.68068 12.9117
295 1 1.13537 4.68781 2.51745
296 1 1.71614 4.13505 0.927258
297 1 2.2982 4.10016 1.56009
298 1 2.76732 4.70067 12.8429
299 1 2.26594 4.64956 2.34401
300 1 2.80738 4.1961 0.878824
301 1 3.40229 3.97579 1.6276
302 1 4.02536 4.7055 0.075312
303 1 3.18555 4.78413 2.35498
304 1 3.99423 4.195 0.840866
305 1 0.129784 5.30961 1.59544
306 1 0.557809 5.94038 12.8486
307 1 0.0520973 5.91839 2.43807
308 1 0.673747 5.38515 0.891748
309 1 1.25409 5.23435 1.66626
310 1 1.72924 5.76701 12.9396
311 1 1.10547 5.82892 2.50321
312 1 1.71991 5.21861 0.712768
313 1 2.23081 5.34657 1.67542
314 1 2.91826 5.76287 0.0241416
315 1 2.23987 5.84758 2.44728
316 1 2.80294 5.16231 0.843692
317 1 3.4018 5.28998 1.5169
318 1 3.87384 5.98307 0.063259
319 1 3.39254 5.78975 2.34539
320 1 4.01025 5.34956 0.749054
321 1 0.125759 6.51074 1.651
322 1 0.56393 6.99566 12.849
323 1 13.3918 6.98797 2.40744
324 1 0.681413 6.48582 0.705716
325 1 1.17529 6.4076 1.70631
326 1 1.74338 6.88558 0.060076
327 1 1.0924 6.9586 2.53367
328 1 1.71069 6.33184 0.774549
329 1 2.12591 6.48148 1.68123
330 1 2.81952 6.85029 0.182117
331 1 2.24873 6.89693 2.59549
332 1 2.75747 6.21224 0.877758
333 1 3.20402 6.45087 1.71328
334 1 4.00128 6.94856 0.0264087
335 1 3.46142 6.97843 2.49639
336 1 3.77947 6.48222 0.993214
337 1 0.0471003 7.6374 1.7188
338 1 0.575544 8.04814 0.0485283
339 1 0.0104176 8.27402 2.48136
340 1 0.666047 7.565 0.835637
341 1 1.18222 7.46937 1.61131
342 1 1.81147 7.93775 12.8402
343 1 1.10942 8.06167 2.31759
344 1 1.76735 7.62629 0.80286
345 1 2.19597 7.49979 1.58649
346 1 2.91525 8.24377 0.0734091
347 1 2.27352 8.02709 2.32846
348 1 2.86287 7.52531 0.687767
349 1 3.3389 7.52183 1.7108
350 1 3.92324 8.08936 0.0508301
351 1 3.58515 9.25236 3.22119
352 1 3.87527 7.59537 0.953288
353 1 0.519561 4.70424 3.12542
354 1 0.477686 4.1541 4.03288
355 1 1.84138 4.69064 3.25888
356 1 1.56988 4.18985 4.03424
357 1 2.82628 4.80192 3.33888
358 1 2.80066 4.22479 3.97259
359 1 3.96104 4.7269 3.12743
360 1 3.88692 4.14771 3.89987
361 1 0.643776 5.8815 3.3726
362 1 0.511146 5.16982 4.00157
363 1 1.81733 5.80573 3.23287
364 1 1.69546 5.215 4.02149
365 1 2.85322 5.82927 3.20374
366 1 2.88033 5.31544 4.1396
367 1 3.93664 5.95984 3.3058
368 1 4.01115 5.32257 3.93604
369 1 0.662501 7.05849 3.23549
370 1 0.623066 6.5415 4.04592
371 1 1.74407 7.05665 3.30681
372 1 1.71106 6.38723 3.9801
373 1 2.97618 6.98094 3.31258
374 1 2.94103 6.328 4.01113
375 1 5.12762 7.20747 3.27497
376 1 4.04638 6.51075 4.16522
377 1 0.6447 8.23226 3.23275
378 1 0.528633 7.60149 4.03653
379 1 1.63301 8.1329 3.16801
380 1 1.73372 7.4707 4.11126
381 1 3.91109 8.16526 3.30167
382 1 2.86195 7.57462 3.955
383 1 4.00827 7.08199 3.38344
384 1 3.97879 7.7206 4.04267
385 1 4.5014 4.35476 1.68214
386 1 5.17262 4.84312 12.8951
387 1 4.43568 5.09827 2.41322
388 1 5.15198 4.47359 0.845038
389 1 5.67114 5.14967 2.40225
390 1 6.16421 4.73563 0.938505
391 1 6.15695 5.06121 3.34602
392 1 5.55264 4.41226 1.70578
393 1 6.79099 4.69165 1.60189
394 1 7.33028 5.35486 0.0395076
395 1 6.70389 5.25675 2.31811
396 1 7.34229 4.721 0.692853
397 1 7.83308 4.90701 1.71247
398 1 8.32293 5.51451 12.831
399 1 7.80872 5.38603 2.50797
400 1 8.28403 4.76836 0.832816
401 1 4.47454 5.55494 1.59187
402 1 5.01537 6.24634 0.0201549
403 1 4.41298 6.21019 2.54481
404 1 5.00379 5.60943 0.636856
405 1 5.55301 5.5645 1.61817
406 1 6.13739 6.23589 12.7841
407 1 5.50835 6.28621 2.34708
408 1 6.17433 5.69849 0.714094
409 1 6.6555 5.90558 1.6272
410 1 7.15068 6.31639 12.9248
411 1 6.73467 6.29938 2.44922
412 1 7.26152 5.84752 0.888958
413 1 7.89354 5.96337 1.55265
414 1 8.41691 6.49003 0.000514038
415 1 7.84172 6.48527 2.33338
416 1 8.43981 5.82649 0.827076
417 1 4.46597 6.55519 1.62335
418 1 5.08669 7.22954 0.0371689
419 1 4.58806 7.22006 2.41351
420 1 5.04356 6.65428 0.890148
421 1 5.6787 6.75504 1.45829
422 1 6.11465 7.41851 12.8818
423 1 5.67873 7.22818 2.30954
424 1 6.33778 6.81573 0.638825
425 1 6.79513 6.91303 1.63525
426 1 7.17341 7.61898 12.8365
427 1 6.69052 7.49974 2.31483
428 1 7.35698 6.93964 0.748122
429 1 7.8206 7.15008 1.68867
430 1 8.39269 7.03514 0.789887
431 1 7.90331 7.71439 2.39617
432 1 8.95875 7.07624 1.53742
433 1 4.52453 7.64635 1.68574
434 1 5.01275 8.32969 12.7705
435 1 4.47131 8.34275 2.51156
436 1 5.04567 7.82533 0.696524
437 1 5.58106 7.82401 1.53371
438 1 6.14201 8.54192 12.9017
439 1 5.69624 8.48624 2.40774
440 1 6.21303 7.95907 0.832228
441 1 6.76975 8.11231 1.45972
442 1 7.23546 8.66029 12.9185
443 1 6.86111 8.51714 2.44705
444 1 7.42034 8.1105 0.605768
445 1 7.85528 8.26967 1.49105
446 1 8.58385 8.05588 0.781847
447 1 7.83162 9.46183 1.45587
448 1 8.36939 7.62151 12.915
449 1 5.07393 4.9271 3.10511
450 1 4.94814 4.45988 4.13509
451 1 6.21926 5.65889 4.11247
452 1 6.12515 4.4588 3.81271
453 1 7.14832 5.42606 3.25738
454 1 7.34854 4.70914 3.9583
455 1 8.39884 5.50459 3.25578
456 1 8.33183 3.82541 3.99471
457 1 4.93127 5.42495 4.00468
458 1 4.51981 5.55534 4.96783
459 1 6.19669 6.33621 3.17922
460 1 6.16945 6.78443 4.01043
461 1 7.30433 6.60667 3.15358
462 1 7.80736 6.08098 4.80193
463 1 8.31621 6.59064 3.15621
464 1 7.87118 5.45428 5.56617
465 1 5.31272 7.79953 4.19715
466 1 5.2463 5.94036 3.25773
467 1 6.25823 7.44526 3.17115
468 1 5.07666 6.65625 3.9318
469 1 7.28184 8.02031 3.95579
470 1 7.28579 7.49463 3.14094
471 1 8.35868 7.68845 3.20373
472 1 8.47901 7.04879 3.95715
473 1 5.03589 8.22629 3.19417
474 1 4.64111 7.71149 4.86669
475 1 6.20622 7.90503 4.0173
476 1 6.76831 8.06832 4.79246
477 1 7.36641 8.61924 3.28187
478 1 6.67012 8.64334 5.61206
479 1 7.72455 8.79921 2.26279
480 1 8.41364 8.17173 4.16896
481 1 8.92328 4.76988 1.70447
482 1 9.40394 5.4234 12.8754
483 1 8.89442 5.46097 2.34014
484 1 9.24743 4.90642 0.84614
485 1 10.026 4.79176 1.53492
486 1 10.6633 5.35803 0.139993
487 1 9.98072 5.34721 2.377
488 1 10.4879 4.69489 0.666079
489 1 11.1338 4.67851 1.47087
490 1 11.7553 5.08181 0.0547846
491 1 11.2346 5.27722 2.51438
492 1 11.7654 4.60652 0.917116
493 1 12.4268 4.45805 1.58273
494 1 12.7726 4.74228 12.903
495 1 12.2949 5.16179 2.39258
496 1 12.9971 4.34627 0.838586
497 1 8.93329 6.05492 1.61114
498 1 9.52572 6.49965 0.146518
499 1 9.56477 6.52616 3.18865
500 1 9.61018 5.79688 0.890639
501 1 10.1039 6.0073 1.62071
502 1 10.5928 6.50143 12.8393
503 1 10.1593 6.45364 2.33189
504 1 10.6561 5.97626 0.766932
505 1 11.2135 5.64272 1.5452
506 1 11.8693 6.32162 12.928
507 1 11.3006 6.33823 2.46986
508 1 11.8151 5.75551 0.761198
509 1 12.3059 5.64825 1.64309
510 1 12.9499 5.8679 0.0777374
511 1 12.5232 6.28769 2.36649
512 1 12.9212 5.47962 0.805443
513 1 9.03265 6.67443 2.45408
514 1 9.62196 7.70064 0.0614471
515 1 8.95991 7.70376 2.3455
516 1 9.56104 6.96553 0.768787
517 1 10.1755 7.18455 1.54967
518 1 10.681 7.46613 12.9445
519 1 10.1151 7.58146 2.46716
520 1 10.7259 6.96255 0.830954
521 1 11.301 6.75058 1.63652
522 1 11.7717 7.50319 12.9056
523 1 11.184 7.38254 2.30092
524 1 11.7686 6.89737 0.745678
525 1 12.3949 6.7628 1.45251
526 1 12.8615 7.08323 0.0306863
527 1 12.2973 7.27377 2.43
528 1 13.0594 6.5888 0.850163
529 1 8.95239 8.3746 1.63116
530 1 9.47838 8.76417 12.8772
531 1 8.40487 8.70382 3.21781
532 1 9.58486 8.19094 0.778524
533 1 10.0695 8.12759 1.65867
534 1 10.694 8.57717 12.8778
535 1 10.0408 8.71852 2.49208
536 1 10.7045 8.11097 0.749287
537 1 11.2627 7.96322 1.65222
538 1 11.8087 8.51737 12.8757
539 1 11.1844 8.45651 2.38452
540 1 11.8575 8.02654 0.905241
541 1 12.4437 7.81541 1.65325
542 1 12.8588 8.27523 0.00667999
543 1 12.3408 8.26455 2.51151
544 1 12.989 7.69493 0.801382
545 1 9.45733 5.2802 3.1542
546 1 9.48086 4.92996 4.08098
547 1 10.6158 5.35208 3.09352
548 1 10.5298 4.85014 4.00367
549 1 11.7592 5.0967 3.37821
550 1 11.7351 4.52842 4.06553
551 1 12.8492 5.10552 3.27364
552 1 12.8105 4.31857 4.04227
553 1 9.57559 7.0775 3.94741
554 1 9.64213 5.97531 3.96419
555 1 10.6954 6.40758 3.17549
556 1 10.6259 5.87208 4.01338
557 1 11.9095 6.18134 3.15279
558 1 11.6743 5.83949 4.03447
559 1 13.0038 6.13404 3.27566
560 1 12.84 5.46572 4.10892
561 1 9.41951 8.78225 3.08491
562 1 9.42983 7.63159 3.21498
563 1 10.6667 7.51468 3.1882
564 1 10.7233 6.99963 3.9174
565 1 11.8174 7.35714 3.22383
566 1 11.8856 6.85083 4.06563
567 1 13.0137 7.26703 3.26879
568 1 12.9394 6.53447 4.06071
569 1 8.79996 8.94737 2.33354
570 1 8.87529 8.07238 4.82601
571 1 10.6474 8.63944 3.22476
572 1 10.557 8.13792 4.08287
573 1 11.7591 8.50089 3.3008
574 1 11.7221 7.92634 4.04562
575 1 12.8869 8.34111 3.18934
576 1 12.9487 7.85328 4.03729
577 1 0.0436736 8.72842 1.60885
578 1 0.485715 9.26083 0.16664
579 1 0.0694402 9.34856 2.52481
580 1 0.619518 8.68279 0.863139
581 1 1.06734 8.78029 1.75691
582 1 1.73286 9.00687 12.9303
583 1 1.16554 9.31584 2.47746
584 1 1.67599 8.60157 0.864225
585 1 2.15724 8.67908 1.55897
586 1 2.76232 9.35476 0.0244716
587 1 2.29568 9.22533 2.53779
588 1 2.78229 8.61868 0.914696
589 1 3.42538 8.65383 1.62786
590 1 3.85893 9.23089 12.8984
591 1 3.43043 8.0682 2.45376
592 1 4.05541 8.60649 0.81854
593 1 0.0162131 9.86322 1.66933
594 1 0.44425 10.3599 0.0425537
595 1 13.3357 10.3468 2.45061
596 1 0.789106 9.87834 0.856728
597 1 1.20762 9.87881 1.623
598 1 1.71018 10.2937 0.0492083
599 1 1.09329 10.3394 2.57681
600 1 1.79905 9.69069 0.733394
601 1 2.18513 9.77019 1.77292
602 1 2.92217 10.3249 0.170106
603 1 2.34535 10.4917 2.48991
604 1 2.73414 9.70495 1.00452
605 1 3.35108 9.86983 1.68199
606 1 3.9669 10.3267 0.0396792
607 1 3.41941 10.453 2.43609
608 1 3.9139 9.73402 0.836334
609 1 0.0138702 10.9754 1.70233
610 1 0.441105 11.5393 12.791
611 1 13.2346 11.4966 2.38516
612 1 0.600323 11.0161 0.699522
613 1 1.07859 10.9258 1.68189
614 1 1.59349 11.6701 0.0550846
615 1 1.00941 11.5694 2.48616
616 1 1.64451 10.9653 0.733487
617 1 2.12764 10.8803 1.58803
618 1 2.76568 11.4229 12.9464
619 1 2.15219 11.3482 2.58881
620 1 2.678 10.9155 0.77443
621 1 3.31018 11.0389 1.5102
622 1 3.91906 11.4932 12.8829
623 1 3.28994 11.4373 2.45347
624 1 3.87011 10.8665 0.795855
625 1 0.0306434 12.084 1.64191
626 1 0.517099 12.5254 0.0286498
627 1 13.331 12.6312 2.36985
628 1 0.449823 12.0034 0.839037
629 1 1.12535 11.9636 1.53653
630 1 1.5647 12.7047 0.0306396
631 1 1.13723 12.6038 2.39423
632 1 1.76946 12.0085 0.967393
633 1 2.2944 11.9811 1.73331
634 1 2.78026 12.586 12.8639
635 1 2.14148 12.4963 2.518
636 1 2.75207 12.1004 0.695208
637 1 3.31156 12.1158 1.48482
638 1 3.84338 12.7087 12.8498
639 1 3.3768 12.4935 2.44946
640 1 3.89123 11.9866 0.694026
641 1 0.567124 9.2196 3.38305
642 1 0.464151 8.71992 4.12388
643 1 1.78274 9.19496 3.24554
644 1 1.63759 8.51012 4.01322
645 1 2.7791 8.15636 3.17685
646 1 2.75184 8.65093 4.02274
647 1 3.2361 9.20294 2.43014
648 1 4.01607 8.86886 4.15722
649 1 0.527097 10.5377 3.21194
650 1 0.525386 9.92873 3.90148
651 1 1.66417 10.238 3.24492
652 1 1.68892 9.71987 4.20283
653 1 2.80075 10.1688 3.21873
654 1 2.75927 9.63508 3.986
655 1 3.94001 10.3006 3.26289
656 1 3.89552 9.85356 4.1158
657 1 0.504441 11.5355 3.134
658 1 0.474742 11.0703 4.1065
659 1 1.64316 11.3596 3.36624
660 1 1.6308 10.7019 4.07125
661 1 2.704 11.4989 3.35612
662 1 2.7937 10.7838 3.85277
663 1 3.86299 11.353 3.19517
664 1 3.77875 10.9217 4.09527
665 1 0.655706 12.6174 3.26638
666 1 0.530785 12.0791 4.13179
667 1 1.68985 12.4341 3.35949
668 1 1.63241 11.978 4.15858
669 1 2.85493 12.5746 3.25468
670 1 2.87907 12.0594 4.09265
671 1 3.97285 12.7139 3.33383
672 1 3.95142 12.0189 3.86918
673 1 4.53356 8.79948 1.67295
674 1 4.99491 9.51868 0.102141
675 1 4.34754 9.38866 2.50413
676 1 5.05508 8.85968 0.756866
677 1 5.58028 9.00872 1.73568
678 1 6.10647 10.7881 0.00540013
679 1 5.53409 9.55088 2.52355
680 1 6.1204 9.04895 0.747703
681 1 6.60074 9.11048 1.49776
682 1 7.22033 9.78583 0.0573074
683 1 6.73182 9.58303 2.35211
684 1 7.28627 9.18969 0.830307
685 1 8.49421 9.18119 0.742295
686 1 8.25136 9.84649 12.9223
687 1 7.85364 10.5346 1.62984
688 1 8.37378 8.71611 12.9314
689 1 4.47899 9.82481 1.56522
690 1 5.02541 10.573 12.9229
691 1 4.57375 10.4407 2.39903
692 1 5.05993 10.0898 0.847361
693 1 5.56792 10.1268 1.69439
694 1 5.57306 10.7076 12.1215
695 1 5.65512 10.7608 2.49239
696 1 6.10013 9.66639 12.8389
697 1 6.1261 10.1695 0.69495
698 1 7.30229 10.8601 12.9048
699 1 6.69068 10.8348 2.37257
700 1 6.62841 10.1898 1.60749
701 1 7.13039 10.4823 0.914484
702 1 8.58142 10.9626 12.8945
703 1 7.79062 10.9643 2.52898
704 1 8.22321 10.4579 0.71494
705 1 4.39336 11.0314 1.6932
706 1 5.0132 11.6801 12.8758
707 1 4.48348 11.6047 2.32744
708 1 4.92475 11.127 0.787844
709 1 5.62619 11.1896 1.57566
710 1 6.12093 11.9163 12.9412
711 1 5.59822 11.7759 2.32855
712 1 6.09791 11.265 0.794552
713 1 6.82468 11.4644 1.5363
714 1 7.26791 12.1064 12.9503
715 1 6.7368 11.9983 2.50769
716 1 7.31226 11.6273 0.636802
717 1 7.92252 11.628 1.59286
718 1 8.37252 12.1199 12.806
719 1 7.78621 12.051 2.41867
720 1 8.35052 11.615 0.677729
721 1 4.42889 12.2157 1.54857
722 1 4.97781 12.8816 12.8942
723 1 4.35282 12.6701 2.45966
724 1 5.02014 12.2495 0.687904
725 1 5.53229 12.3278 1.59443
726 1 6.20894 12.9706 12.8735
727 1 5.54349 13.0084 2.35684
728 1 6.05889 12.5225 0.811403
729 1 6.61638 12.4194 1.54314
730 1 7.31296 13.175 12.8502
731 1 6.7021 12.9959 2.32819
732 1 7.25171 12.7356 0.847545
733 1 7.81599 12.5817 1.56763
734 1 8.30003 13.1982 12.9263
735 1 7.79297 13.2467 2.38694
736 1 8.42486 12.7452 0.770653
737 1 4.97366 9.4579 3.31767
738 1 4.98777 8.74107 3.99003
739 1 6.10806 9.66308 3.19781
740 1 6.11359 9.08599 4.09768
741 1 7.78605 9.8337 2.48015
742 1 7.14475 9.24999 3.91505
743 1 8.3008 9.82219 3.17162
744 1 8.74521 9.34966 4.93255
745 1 5.02333 10.7642 3.28836
746 1 4.90142 10.1237 4.02407
747 1 6.11459 10.6299 3.35222
748 1 5.90722 10.12 4.05477
749 1 7.11349 10.899 3.24145
750 1 7.21818 10.5018 4.13033
751 1 8.41581 11.1353 3.28052
752 1 8.333 10.4054 3.9823
753 1 4.9271 11.737 3.22536
754 1 5.02313 11.2462 4.07691
755 1 5.97876 11.9089 3.20593
756 1 6.18949 11.361 3.96277
757 1 7.26164 12.0553 3.30251
758 1 7.20621 11.5804 4.03266
759 1 8.42715 12.3103 3.09851
760 1 8.34588 11.6275 3.93903
761 1 5.06561 12.7148 3.18697
762 1 5.08932 12.4361 4.08338
763 1 6.20244 12.9817 3.19339
764 1 6.20141 12.3805 4.05686
765 1 7.31746 13.3228 3.15429
766 1 7.33971 12.8052 3.93429
767 1 8.36945 13.2854 3.23924
768 1 8.3631 12.6566 4.0105
769 1 9.03853 9.39408 1.49596
770 1 9.47192 9.94594 12.8865
771 1 8.97402 10.002 2.51691
772 1 9.63789 9.30441 0.700587
773 1 10.0917 9.14743 1.54774
774 1 10.69 9.81097 12.9196
775 1 10.0382 9.80842 2.24636
776 1 10.7031 9.11909 0.766878
777 1 11.2096 9.21473 1.6818
778 1 11.6694 9.4885 0.0114243
779 1 11.1288 9.67774 2.39863
780 1 11.8066 9.03843 0.956368
781 1 12.423 8.95517 1.70885
782 1 12.7405 9.39268 0.052191
783 1 12.1823 9.45046 2.32869
784 1 12.9384 8.86559 0.809503
785 1 8.88176 10.3185 1.43465
786 1 9.56239 10.9916 12.8977
787 1 8.9178 10.9308 2.35759
788 1 9.5012 10.4335 0.786837
789 1 10.103 10.3325 1.55319
790 1 10.7786 10.8716 12.9085
791 1 9.98156 10.8845 2.42256
792 1 10.5329 10.3231 0.717929
793 1 11.1675 10.3503 1.62655
794 1 11.7983 10.6605 0.0710821
795 1 11.0576 10.8489 2.39991
796 1 11.8299 10.1004 0.816301
797 1 12.3726 10.1828 1.70716
798 1 12.7746 10.5605 0.0410214
799 1 12.1875 10.5954 2.54547
800 1 12.9655 9.97759 0.887448
801 1 8.9056 11.4669 1.55294
802 1 9.54107 12.1341 12.8179
803 1 8.96992 12.0564 2.3894
804 1 9.41887 11.5041 0.726197
805 1 9.94598 11.4649 1.60605
806 1 10.5943 11.8727 12.9402
807 1 10.1368 12.0322 2.35767
808 1 10.6036 11.3815 0.739911
809 1 11.1425 11.5037 1.60056
810 1 11.7498 11.9231 0.179222
811 1 11.1544 11.7638 2.53028
812 1 11.7514 11.2289 0.797622
813 1 12.2408 11.1321 1.65467
814 1 12.7899 11.729 12.8723
815 1 12.2744 11.7284 2.41089
816 1 12.9339 11.1296 0.898255
817 1 8.93248 12.6958 1.59193
818 1 9.4123 13.0943 0.0139791
819 1 8.93387 13.1814 2.40863
820 1 9.51054 12.6135 0.808735
821 1 10.0908 12.5879 1.61368
822 1 10.6123 13.0919 12.8873
823 1 10.0311 13.2223 2.38479
824 1 10.5638 12.4619 0.727159
825 1 11.1492 12.5281 1.7114
826 1 11.7786 13.0859 0.0618056
827 1 11.1187 13.0191 2.4972
828 1 11.565 12.5233 0.831601
829 1 12.1308 12.2465 1.62475
830 1 12.9083 12.7414 0.0710251
831 1 12.2284 12.883 2.4636
832 1 12.7528 12.2371 0.945504
833 1 9.53747 9.80168 3.26642
834 1 9.79927 9.30031 4.87131
835 1 10.6024 9.70581 3.25691
836 1 10.581 9.29593 4.12555
837 1 11.7177 9.63047 3.2091
838 1 11.7119 9.04708 4.05079
839 1 12.7405 9.49238 3.19183
840 1 12.8167 8.93895 3.94803
841 1 9.48544 11.0685 3.25152
842 1 9.39191 10.3726 3.95983
843 1 10.5427 10.7078 3.3101
844 1 10.563 10.3918 4.21402
845 1 11.7007 10.6899 3.28222
846 1 11.6591 10.0207 4.08756
847 1 12.8661 10.6629 3.26714
848 1 12.8018 9.93829 4.08072
849 1 9.59001 12.0652 3.08567
850 1 9.58615 11.4975 4.10407
851 1 10.6113 12.0132 3.27533
852 1 10.6299 11.4346 3.94815
853 1 11.7143 11.8169 3.23286
854 1 11.7122 11.1808 4.04654
855 1 12.8126 11.7165 3.34197
856 1 12.8102 11.1034 4.07629
857 1 9.56198 13.1301 3.24015
858 1 9.45629 12.5719 4.03551
859 1 10.6456 13.0806 3.34941
860 1 10.5342 12.6075 4.22151
861 1 11.713 12.9832 3.27406
862 1 11.7743 12.3961 4.01314
863 1 13.0162 12.7764 3.17139
864 1 12.9184 12.2906 4.08002
865 1 13.3978 13.2592 4.83652
866 1 13.3113 0.287798 5.81806
867 1 1.11346 13.1473 4.90749
868 1 1.02348 0.246631 5.75229
869 1 2.12175 12.9786 5.08234
870 1 2.36739 0.202973 5.71872
871 1 3.3918 12.9992 4.76755
872 1 3.36957 0.155727 5.59491
873 1 13.4068 0.771347 4.88327
874 1 13.3386 1.32604 5.65172
875 1 1.00443 0.741085 4.90785
876 1 1.06809 1.24257 5.73888
877 1 2.22407 0.600709 4.87325
878 1 2.19639 1.22109 5.63953
879 1 3.37983 0.768839 4.84286
880 1 3.29314 1.38303 5.56839
881 1 13.4234 1.9031 4.853
882 1 13.3845 2.54467 5.58394
883 1 1.12483 1.86105 4.94998
884 1 1.12348 2.48443 5.69576
885 1 2.24228 1.87004 4.82785
886 1 2.3448 2.46785 5.6794
887 1 3.3675 1.9175 4.79254
888 1 3.37335 2.5684 5.632
889 1 13.3394 3.09965 4.93092
890 1 0.0500969 3.72793 5.72282
891 1 1.12854 2.91531 4.80868
892 1 1.11597 3.55606 5.52003
893 1 2.12311 2.94077 4.78611
894 1 2.20503 3.53803 5.68312
895 1 3.34285 3.12278 4.81482
896 1 3.31779 3.66631 5.70854
897 1 0.0252753 13.0677 8.08754
898 1 0.540124 0.346725 6.61446
899 1 0.613271 13.0751 7.19208
900 1 1.15423 13.0692 8.08781
901 1 1.68459 0.165359 6.45152
902 1 1.72261 13.0488 7.31866
903 1 2.2127 13.0446 8.2207
904 1 2.8153 0.267054 6.52059
905 1 2.76565 13.1597 7.48863
906 1 3.50316 13.1274 8.0997
907 1 3.76293 0.417754 6.53077
908 1 3.95506 13.3163 7.23385
909 1 0.0525326 0.809959 7.96491
910 1 0.405111 1.50191 6.38619
911 1 0.614565 0.939621 7.26145
912 1 1.07385 0.706517 8.14007
913 1 1.73779 1.32049 6.50066
914 1 1.62762 0.658827 7.29277
915 1 2.16141 0.777763 8.08917
916 1 2.82767 1.42489 6.40926
917 1 2.84269 0.680788 7.38558
918 1 3.35806 0.767936 8.16071
919 1 3.96088 1.45965 6.30582
920 1 3.91702 1.00404 7.27296
921 1 0.0452481 1.83693 8.09087
922 1 0.542602 2.49916 6.39837
923 1 0.639212 2.02671 7.24379
924 1 1.13682 1.84243 8.22136
925 1 1.70684 2.43494 6.46375
926 1 1.64427 1.87903 7.18045
927 1 2.04469 1.88972 8.11264
928 1 2.87158 2.45953 6.46201
929 1 2.69852 1.74295 7.3196
930 1 3.24752 1.97281 7.97263
931 1 3.92539 2.47648 6.47447
932 1 3.8835 2.02507 7.38404
933 1 13.336 2.9944 8.13896
934 1 0.611968 3.55825 6.40458
935 1 0.41963 3.04822 7.27257
936 1 1.01106 3.06323 7.99331
937 1 1.62189 3.51513 6.50532
938 1 1.67708 2.94307 7.2937
939 1 2.17252 2.98388 8.09755
940 1 2.73399 3.57266 6.44745
941 1 2.81064 3.01426 7.29924
942 1 3.29119 3.18071 8.13861
943 1 3.96421 3.69741 6.56536
944 1 3.85349 3.12167 7.20525
945 1 4.58739 13.2811 4.86091
946 1 4.40046 0.413527 5.65999
947 1 5.67354 0.147393 4.74947
948 1 5.56877 0.59285 5.55028
949 1 6.78516 0.0569171 4.81922
950 1 6.60476 0.69062 5.52438
951 1 7.88425 0.37287 4.95646
952 1 7.77228 0.898439 5.64834
953 1 4.49607 0.942063 4.73994
954 1 4.52029 1.52439 5.5192
955 1 5.60291 1.22028 4.77365
956 1 5.55485 1.66488 5.70538
957 1 6.74538 1.33832 4.90864
958 1 6.64069 1.85949 5.63009
959 1 7.88582 1.60104 4.83018
960 1 7.78147 2.11336 5.78908
961 1 4.36782 2.23248 4.98162
962 1 4.53587 2.69372 5.79136
963 1 5.61822 2.25402 4.94909
964 1 5.56382 2.88882 5.65712
965 1 6.64553 2.48897 4.80052
966 1 6.68119 2.96078 5.8073
967 1 7.73437 2.65087 4.89925
968 1 7.73133 3.147 5.67668
969 1 4.53577 3.27191 4.84002
970 1 4.42483 3.82955 5.70431
971 1 5.64333 3.52875 4.92552
972 1 5.42379 4.03617 5.75918
973 1 6.65378 3.44146 4.91615
974 1 6.78169 4.19728 5.55735
975 1 7.79821 4.29077 5.52953
976 1 8.27196 4.42203 6.44168
977 1 4.49003 13.4265 8.08965
978 1 4.98293 0.33384 6.38004
979 1 5.06856 13.2164 7.27207
980 1 5.576 13.426 8.14248
981 1 6.14891 0.646129 6.37984
982 1 6.1223 0.0949433 7.15105
983 1 6.65081 0.203158 7.96276
984 1 7.18019 0.691675 6.44218
985 1 7.38714 0.163258 7.32546
986 1 7.94828 0.207112 8.0419
987 1 8.41979 0.91817 6.36141
988 1 8.4002 0.358072 7.14142
989 1 4.49842 0.944537 8.05362
990 1 4.93223 1.59799 6.43279
991 1 5.04774 0.941555 7.03883