data.lammps (converted from cfg to data.lammps)
    
2298  atoms
1  atom types
0.0   13.4375  xlo xhi
0.0   13.4375  ylo yhi
0.0   12.952  zlo zhi
0.0  0.0 0.0 xy xz yz
    
    
    
Atoms
  
1 1 0.0425931 13.2384 1.54521
2 1 0.681522 0.271745 12.9115
3 1 13.4316 0.809185 1.71114
4 1 1.17413 13.1845 1.65563
5 1 1.72227 13.142 0.859787
6 1 2.31865 0.470208 12.0313
7 1 1.16087 0.323763 2.37357
8 1 1.60698 0.810246 0.800222
9 1 2.30058 13.4111 1.71548
10 1 2.90052 1.09246 0.733148
11 1 2.19428 0.614311 2.42481
12 1 2.57774 0.0379729 0.808193
13 1 3.31535 13.4106 1.50699
14 1 3.88504 0.689598 0.00392689
15 1 3.31971 0.575915 2.28127
16 1 3.90186 0.269279 0.874836
17 1 12.7178 0.695587 0.897666
18 1 1.20941 1.87768 11.38
19 1 13.4262 1.35654 2.45728
20 1 0.288104 0.930959 0.762995
21 1 1.00771 0.841124 1.43671
22 1 0.522357 1.34276 12.8348
23 1 1.11709 1.92828 1.60355
24 1 1.67382 1.44438 0.0800331
25 1 2.31853 1.04089 1.53914
26 1 2.20828 1.53231 12.1186
27 1 2.27786 1.78055 2.41011
28 1 2.77944 1.73066 3.26956
29 1 3.35897 1.21909 1.58904
30 1 4.1282 1.42843 0.857574
31 1 5.1593 1.84926 3.22738
32 1 5.09507 1.32606 1.04425
33 1 12.8116 1.9157 0.66483
34 1 0.483837 2.5056 0.116666
35 1 0.0376108 2.35565 2.41736
36 1 13.4226 2.00743 1.52733
37 1 2.22896 2.11686 1.54883
38 1 1.56499 2.60537 12.8645
39 1 1.00558 2.54252 2.34104
40 1 2.81211 2.20761 0.727505
41 1 2.72103 1.61665 0.000838459
42 1 2.62608 2.80832 12.9497
43 1 2.10033 2.80872 2.4187
44 1 3.28453 2.43227 1.615
45 1 3.31203 1.78132 2.40402
46 1 3.96416 2.89753 12.9407
47 1 2.72733 2.88222 3.11638
48 1 3.77119 2.40319 0.882909
49 1 13.4234 3.20553 1.55889
50 1 0.540397 2.98781 0.898017
51 1 0.0358066 3.53831 2.39409
52 1 1.17185 3.13426 1.60509
53 1 0.598612 1.83532 0.791499
54 1 1.56259 3.68416 0.0841506
55 1 1.09375 3.57893 2.49629
56 1 1.74588 3.16453 0.916597
57 1 2.44116 3.3174 1.65695
58 1 2.6393 3.93126 12.8509
59 1 2.1416 3.96851 2.31237
60 1 2.7464 3.38894 0.782035
61 1 3.36601 3.48721 1.6895
62 1 3.83419 4.07993 0.0459985
63 1 3.321 4.06169 2.40418
64 1 3.85135 3.59528 0.827872
65 1 13.3755 0.026374 2.50787
66 1 0.54024 0.343047 3.15287
67 1 1.65391 0.449651 3.23487
68 1 1.40177 13.3607 4.06874
69 1 2.77845 0.510954 3.26883
70 1 2.70561 0.0547625 4.06954
71 1 3.79931 0.841333 3.22624
72 1 3.91358 0.199941 4.08184
73 1 0.601424 1.43511 3.16464
74 1 0.525887 0.774375 4.01289
75 1 1.20561 1.3787 2.37913
76 1 1.63721 1.10174 3.90165
77 1 1.74728 1.64372 3.20513
78 1 2.80172 1.0809 3.99045
79 1 3.93716 2.33842 3.89609
80 1 4.48631 1.9872 2.37928
81 1 0.558549 2.52995 3.31883
82 1 0.535241 1.84897 4.08434
83 1 1.5864 2.69146 3.20019
84 1 1.73708 2.20117 4.07528
85 1 2.86379 2.22912 4.0234
86 1 3.31289 2.39901 4.88479
87 1 3.34583 2.83792 2.47418
88 1 4.2918 2.47439 4.91495
89 1 0.602902 3.78208 3.31119
90 1 0.667599 3.10769 4.01952
91 1 1.78906 3.87065 3.20133
92 1 1.68401 3.32206 3.95276
93 1 2.79422 3.92261 3.26253
94 1 2.78116 3.27777 4.06948
95 1 3.82443 4.11029 3.27346
96 1 3.83663 2.99197 3.27338
97 1 4.50987 0.158065 1.66835
98 1 5.18713 0.844086 0.0496164
99 1 4.40991 0.678494 2.45885
100 1 4.9917 0.18562 0.844092
101 1 5.53259 0.571181 1.53552
102 1 6.2072 0.843268 0.0937124
103 1 5.36692 1.00958 2.3536
104 1 6.11817 0.292064 0.949795
105 1 6.6661 0.512099 1.65625
106 1 7.20293 0.775645 0.0744305
107 1 6.49319 0.9225 2.52445
108 1 7.85607 0.0997433 1.68864
109 1 7.25276 0.215214 0.941094
110 1 7.89669 1.47702 11.3478
111 1 7.73214 0.724246 2.44912
112 1 8.41556 0.26381 0.840661
113 1 4.37293 1.34429 1.68476
114 1 4.42809 2.1356 12.1983
115 1 3.97104 1.73142 3.12625
116 1 6.05573 1.51252 0.863203
117 1 6.14958 1.9943 0.0158694
118 1 6.07719 2.65217 0.684169
119 1 5.55768 1.89256 2.24649
120 1 4.92361 1.85013 12.9499
121 1 6.54765 1.5482 1.64167
122 1 6.61634 1.99943 12.111
123 1 6.68264 1.93895 2.5613
124 1 7.22099 1.4847 0.797471
125 1 7.64664 1.31518 1.63124
126 1 8.49245 1.95389 0.0614574
127 1 7.69631 1.82685 2.36178
128 1 7.75256 1.77558 12.4081
129 1 4.39674 2.54018 1.59038
130 1 4.94289 3.11636 0.134873
131 1 4.51312 3.07248 2.42739
132 1 4.99614 2.49071 0.76443
133 1 5.56614 2.35527 1.55316
134 1 6.08963 3.24411 12.9411
135 1 5.48937 2.96859 2.37054
136 1 6.67703 2.53923 1.61783
137 1 7.73499 2.97672 2.55524
138 1 7.92489 3.0147 12.3069
139 1 6.50273 3.00977 2.48966
140 1 7.21217 1.99406 0.0317325
141 1 7.23416 2.52532 0.919925
142 1 8.45947 2.96613 0.109618
143 1 7.77779 3.5539 1.70722
144 1 7.80834 2.4869 1.76825
145 1 4.53626 3.58198 1.56805
146 1 5.16544 4.21545 0.0260393
147 1 4.54741 4.12899 2.46188
148 1 5.0589 3.67415 0.859925
149 1 5.60431 3.59804 1.60343
150 1 6.20423 4.26557 12.8702
151 1 5.67533 4.20017 2.33049
152 1 6.22084 3.66695 0.886738
153 1 7.28276 4.21352 0.0864989
154 1 6.80209 4.18597 12.1804
155 1 6.78271 3.62525 1.72376
156 1 7.20958 3.5631 0.763906
157 1 7.75845 4.10917 2.53687
158 1 8.45458 4.23156 0.15267
159 1 8.42276 4.13274 3.23879
160 1 8.239 3.58789 0.794665
161 1 5.04299 0.83862 3.32044
162 1 4.97948 0.320139 4.07535
163 1 6.11852 0.843485 3.33589
164 1 6.08028 0.359961 4.10043
165 1 7.2414 0.856764 3.24541
166 1 7.10724 0.191128 3.96147
167 1 8.40641 0.757905 3.11835
168 1 8.33993 0.22966 3.91979
169 1 4.86284 1.44593 4.04892
170 1 4.30581 1.34843 4.9562
171 1 6.11025 2.06157 3.38727
172 1 6.19328 1.43232 4.13837
173 1 7.24543 2.00794 3.36407
174 1 7.26617 1.39508 3.99638
175 1 8.27786 1.81257 3.27335
176 1 8.38231 1.24564 4.14198
177 1 5.00613 2.93022 3.2506
178 1 4.9552 2.56452 4.22866
179 1 5.98452 3.34305 3.22896
180 1 6.03634 2.70786 4.03873
181 1 7.08971 3.22422 3.25824
182 1 7.20105 2.52356 4.03906
183 1 8.26147 2.9014 3.25625
184 1 8.35041 2.36149 4.07346
185 1 5.00173 3.60066 3.97558
186 1 4.48397 3.5909 4.89688
187 1 6.74257 4.25875 2.3429
188 1 6.15306 3.72784 4.15773
189 1 7.28116 4.29391 3.29863
190 1 7.38655 3.64664 4.05797
191 1 8.3732 5.37086 3.32458
192 1 7.91416 3.61565 4.92093
193 1 8.85101 13.397 1.69011
194 1 8.99505 0.36853 12.1415
195 1 8.75707 0.676803 2.23765
196 1 9.54767 0.0487443 0.799765
197 1 10.0556 13.3104 1.61956
198 1 10.5688 0.387714 0.064664
199 1 9.91075 0.510664 2.40403
200 1 10.7426 13.2579 0.950893
201 1 11.2577 13.2173 1.6139
202 1 11.0455 0.378354 12.1406
203 1 11.1708 0.333339 2.52787
204 1 11.8345 13.1306 0.714544
205 1 12.2495 12.9388 1.64551
206 1 11.6021 0.211981 12.8345
207 1 12.2192 0.0737239 2.4032
208 1 12.9194 13.0212 0.841841
209 1 8.36349 1.28915 0.825743
210 1 9.49806 2.20667 0.685591
211 1 8.93828 1.22541 1.6074
212 1 9.54466 0.57948 0.00111649
213 1 9.42878 1.11146 0.838286
214 1 10.1096 2.8029 12.0373
215 1 10.0067 1.66894 2.44681
216 1 10.6651 0.947426 0.725838
217 1 11.2145 0.852373 1.77501
218 1 11.8023 1.84905 0.826146
219 1 11.0276 1.48085 2.38576
220 1 11.724 0.691686 0.905368
221 1 12.4177 0.793679 1.81066
222 1 12.2204 0.22055 12.2219
223 1 12.2103 1.27076 2.53323
224 1 0.663006 13.2531 0.729358
225 1 8.91864 2.41067 1.57007
226 1 9.07246 2.71558 12.2014
227 1 9.58655 2.61495 3.18758
228 1 10.0143 2.12838 1.55684
229 1 10.1415 0.853774 1.62834
230 1 9.99634 2.18233 11.3044
231 1 10.1284 2.67761 2.36484
232 1 10.5987 1.99872 0.817161
233 1 11.2921 2.01196 1.53141
234 1 12.2765 2.37756 12.2453
235 1 11.2212 2.50683 2.46127
236 1 11.6954 2.51753 0.0389647
237 1 12.3919 1.85304 1.57253
238 1 11.6814 3.74146 12.9487
239 1 12.3214 2.26477 2.44463
240 1 12.7638 1.17065 0.0163427
241 1 8.94826 3.04037 2.60281
242 1 9.47717 4.44068 0.973072
243 1 8.92824 3.38694 1.75647
244 1 9.3873 3.28207 0.874658
245 1 10.0469 3.20753 1.67516
246 1 10.6402 3.72297 0.119616
247 1 9.88207 3.87232 2.44381
248 1 10.0929 3.41228 11.1673
249 1 11.1449 3.15323 1.76493
250 1 12.3115 3.55906 12.2209
251 1 11.1048 4.2185 1.67323
252 1 11.71 4.09261 0.874616
253 1 12.3966 2.91209 1.60004
254 1 12.6587 2.97821 0.736012
255 1 12.2646 3.40944 2.40402
256 1 12.915 2.46706 12.9257
257 1 9.38159 0.526206 3.227
258 1 9.46832 0.117892 4.19752
259 1 10.5209 0.394499 3.13523
260 1 10.4984 13.2418 4.03319
261 1 11.7325 0.246248 3.33422
262 1 11.7327 13.1118 4.07176
263 1 12.7932 0.210727 3.29953
264 1 12.7903 12.9765 4.03698
265 1 8.86657 1.93273 2.3292
266 1 9.54256 1.15338 3.9236
267 1 10.5409 1.50222 3.26962
268 1 10.5342 0.789613 3.97827
269 1 11.6929 1.3843 3.24189
270 1 11.668 0.84565 3.98156
271 1 12.8917 1.36659 3.20838
272 1 12.7979 0.775103 4.03881
273 1 9.33092 2.18017 4.08163
274 1 9.28635 1.60945 3.11876
275 1 10.6038 2.74054 3.30083
276 1 10.641 2.0579 3.96064
277 1 11.7973 2.62273 3.20171
278 1 11.6865 1.95005 4.02018
279 1 12.9483 2.59001 3.24472
280 1 12.814 1.87176 3.97448
281 1 9.42795 3.82239 3.31481
282 1 9.40156 3.16936 4.03162
283 1 12.9421 3.69224 3.11897
284 1 10.5264 3.22388 4.05935
285 1 11.0679 3.71258 2.57475
286 1 11.6802 3.04715 4.08978
287 1 11.8496 3.63695 3.23163
288 1 12.8159 3.00465 4.07314
289 1 13.3807 4.25253 1.69013
290 1 0.49997 4.69977 12.8688
291 1 13.3431 4.72012 2.50778
292 1 0.444197 4.22561 0.888271
293 1 1.0529 4.22161 1.64137
294 1 1.73922 4.83241 0.00420719
295 1 1.02633 4.86923 2.35252
296 1 1.61624 4.28357 0.884699
297 1 2.30374 4.38953 1.52268
298 1 2.75332 4.99155 0.0132525
299 1 2.23694 5.0428 2.44825
300 1 2.90478 4.46481 0.806114
301 1 3.41482 4.57378 1.68057
302 1 3.85512 5.12141 12.8663
303 1 3.22309 5.16787 2.44926
304 1 4.01146 4.60152 0.927785
305 1 0.00985358 5.31207 1.60685
306 1 0.523861 5.7582 12.8526
307 1 13.4197 5.90082 2.46411
308 1 0.579291 5.31164 0.739414
309 1 1.04541 5.31153 1.64726
310 1 1.72963 5.97764 0.0438288
311 1 1.13816 6.05577 2.5253
312 1 1.57246 5.3415 0.724133
313 1 2.15472 5.57323 1.63696
314 1 2.86772 6.07828 0.0362839
315 1 2.2707 6.08415 2.43021
316 1 2.70559 5.5135 0.955622
317 1 3.40109 5.73005 1.61366
318 1 3.98584 6.22015 0.149182
319 1 3.36398 6.16416 2.50253
320 1 3.866 5.56884 0.791782
321 1 0.125687 6.38351 1.6502
322 1 0.601123 6.90356 0.0426359
323 1 0.0160535 6.98339 2.38555
324 1 0.539823 6.35148 0.789835
325 1 1.20349 6.43635 1.58707
326 1 1.68045 7.10726 12.8266
327 1 1.09828 7.02312 2.38044
328 1 1.73203 6.52897 0.815258
329 1 2.31422 6.72082 1.61378
330 1 2.87752 7.29964 12.9151
331 1 2.29066 7.13632 2.46983
332 1 2.86219 6.70941 0.7344
333 1 3.3439 6.7637 1.6338
334 1 4.03009 7.43497 0.144929
335 1 3.49501 7.32618 2.44038
336 1 3.92758 6.83025 0.917016
337 1 0.0581766 7.52716 1.51378
338 1 0.518391 8.06484 12.905
339 1 13.3398 8.09607 2.41357
340 1 0.645664 7.51072 0.769643
341 1 1.21147 7.58855 1.58214
342 1 1.69407 8.3101 12.9282
343 1 0.991306 8.1784 2.29609
344 1 1.68457 7.62558 0.633295
345 1 2.30037 7.80934 1.60751
346 1 2.75568 8.23032 0.105962
347 1 2.20646 8.21418 2.39567
348 1 2.89655 7.75764 0.950552
349 1 3.44916 7.95734 1.6486
350 1 3.89705 8.58764 12.9012
351 1 2.94288 9.57808 3.28009
352 1 3.8909 8.10219 0.760712
353 1 0.536112 4.79615 3.17895
354 1 0.373053 4.2057 4.1037
355 1 1.59389 4.93987 3.22895
356 1 1.57759 4.41851 4.04851
357 1 2.70587 5.00585 3.34405
358 1 2.78334 4.37233 4.09603
359 1 3.89409 5.06842 3.16056
360 1 3.89864 4.61839 4.12791
361 1 0.541299 5.99025 3.25534
362 1 0.573209 5.33543 3.98612
363 1 1.74272 6.03613 3.28278
364 1 1.68544 5.53765 4.08904
365 1 2.79145 6.22382 3.32116
366 1 2.8478 5.55348 4.01363
367 1 3.946 6.15364 3.20264
368 1 3.93013 5.68417 4.21559
369 1 0.614342 7.15813 3.29036
370 1 0.550157 6.53568 4.06298
371 1 1.65387 7.22744 3.22871
372 1 1.71972 6.66921 3.9421
373 1 2.85867 7.41547 3.15723
374 1 2.94752 6.84573 3.98778
375 1 5.11805 7.43166 3.29917
376 1 3.38749 6.88099 4.9321
377 1 0.539904 8.12287 3.24887
378 1 0.583861 7.58677 4.17025
379 1 1.63036 8.33425 3.07062
380 1 1.60444 7.76624 4.03122
381 1 3.96507 8.52565 3.19556
382 1 2.75467 7.86463 3.93685
383 1 4.01835 7.30864 3.27002
384 1 4.00409 8.03515 3.87213
385 1 4.54824 4.6876 1.69587
386 1 5.01814 5.29917 12.8267
387 1 4.38409 5.37273 2.32369
388 1 5.06419 4.83776 0.80317
389 1 5.48454 5.42089 2.46668
390 1 6.18922 4.70566 0.874133
391 1 6.16127 5.33582 3.09366
392 1 5.6964 4.85522 1.62399
393 1 6.71938 4.86073 1.66644
394 1 6.8005 5.32902 12.1447
395 1 6.77185 5.49614 2.4196
396 1 7.31947 4.70385 0.910662
397 1 7.85098 4.77534 1.50813
398 1 8.38732 5.12207 0.123898
399 1 7.8099 5.24812 2.39176
400 1 8.63371 4.54541 1.20875
401 1 4.41559 5.92415 1.60979
402 1 5.07548 6.36479 0.0258557
403 1 4.47264 6.49346 2.43836
404 1 5.02479 5.81074 0.870789
405 1 5.67495 5.94256 1.5965
406 1 6.11741 6.45446 12.8888
407 1 6.1591 6.57314 3.27735
408 1 6.18015 5.84242 0.754827
409 1 6.84931 6.0745 1.59714
410 1 7.20624 5.86336 0.799827
411 1 6.71492 6.52177 2.49335
412 1 7.33545 5.30914 0.0515123
413 1 7.84389 5.97279 1.67788
414 1 8.50666 6.07582 0.0695134
415 1 7.86408 6.34126 2.47732
416 1 8.41288 5.70793 0.889256
417 1 4.58763 7.0269 1.48054
418 1 5.03069 7.5241 0.166528
419 1 4.49038 7.51346 2.43724
420 1 5.2784 6.94592 0.861681
421 1 5.64671 6.50332 2.30967
422 1 6.27447 7.50496 12.8395
423 1 5.60301 7.18409 1.67311
424 1 6.30866 7.08813 0.822873
425 1 6.8256 7.14712 1.64963
426 1 7.3501 7.69027 0.115519
427 1 6.70354 7.57548 2.50981
428 1 7.36722 6.92492 0.646939
429 1 7.83533 7.00873 1.66859
430 1 8.32543 6.9065 0.804797
431 1 8.00835 7.47898 2.50371
432 1 8.94443 6.60258 1.62496
433 1 4.57633 8.10516 1.50637
434 1 5.14531 8.79673 0.0373073
435 1 4.58219 8.58386 2.40513
436 1 5.16786 8.24837 0.838321
437 1 5.61826 7.65776 2.44768
438 1 6.25817 8.66375 0.160281
439 1 5.77655 8.29141 1.66828
440 1 6.21714 8.06113 0.887645
441 1 6.82996 8.22055 1.71815
442 1 7.2555 8.75179 0.0550454
443 1 6.82094 8.743 2.43872
444 1 7.37361 8.19983 0.972932
445 1 8.03194 8.07005 1.50147
446 1 8.61782 8.07693 0.791628
447 1 7.9135 9.19434 1.70214
448 1 8.5194 7.35762 0.0685518
449 1 4.95767 5.34929 3.23123
450 1 5.02497 4.21709 3.20544
451 1 6.02632 5.91882 3.94769
452 1 6.2373 4.39498 3.17785
453 1 7.32766 5.385 3.32449
454 1 7.10161 4.72655 4.17907
455 1 8.29494 5.75719 4.17447
456 1 8.35227 3.40856 4.04088
457 1 4.94186 5.89623 4.01739
458 1 4.37885 5.23854 5.81755
459 1 6.21951 7.068 4.12454
460 1 6.14939 7.66894 3.30294
461 1 7.31494 6.45493 3.34342
462 1 8.32093 6.41 6.5246
463 1 8.4216 6.32465 3.19609
464 1 7.89405 6.41276 5.63536
465 1 5.07768 8.1387 4.06296
466 1 5.177 6.39452 3.20891
467 1 6.31049 8.78236 3.31782
468 1 4.96517 6.96728 4.15062
469 1 6.21367 8.25216 4.1464
470 1 7.22626 7.56874 3.29231
471 1 8.49032 7.41714 3.26782
472 1 8.39609 6.71256 4.15093
473 1 5.12952 8.62756 3.24959
474 1 4.44097 7.9666 4.76031
475 1 5.6667 8.27027 4.85503
476 1 6.81428 8.17456 4.97183
477 1 7.43197 8.68783 3.26195
478 1 6.7608 9.40245 4.95174
479 1 7.80095 8.38371 2.41503
480 1 8.35197 7.93476 4.02302
481 1 8.82412 4.13815 2.26953
482 1 9.64722 5.01729 0.0181082
483 1 8.89874 4.99763 2.55345
484 1 9.92404 4.49109 1.76208
485 1 10.6345 2.94037 0.82636
486 1 10.1655 4.80259 12.2216
487 1 10.0179 4.9013 2.6089
488 1 10.6061 4.7866 0.265735
489 1 10.5973 4.15363 0.974168
490 1 12.2498 4.66913 12.24
491 1 11.0995 4.80712 2.59318
492 1 11.7102 4.81002 0.209571
493 1 12.2194 4.10233 1.68645
494 1 12.8815 4.62258 0.0551821
495 1 12.2122 4.64259 2.50576
496 1 12.7666 4.1011 0.865977
497 1 8.95165 5.49435 1.83433
498 1 9.64986 6.11377 0.120676
499 1 9.52637 6.21157 3.31742
500 1 9.42543 5.568 0.959456
501 1 10.0557 5.5065 1.74198
502 1 10.6831 5.89049 0.0823149
503 1 10.2198 6.09895 2.56731
504 1 10.6049 5.4205 0.934593
505 1 11.135 5.17618 1.65122
506 1 11.2586 5.89617 12.0708
507 1 11.2922 5.9371 2.41726
508 1 11.7408 5.38305 0.926924
509 1 12.2772 5.17786 1.7508
510 1 12.7547 5.74852 12.9512
511 1 12.2627 5.88994 2.30654
512 1 12.8628 5.15944 0.93484
513 1 9.05877 6.14883 2.53759
514 1 9.48345 7.25581 0.019359
515 1 9.04297 7.34758 2.46569
516 1 9.56187 6.7179 0.920136
517 1 10.1217 6.58889 1.76395
518 1 10.6457 6.90882 12.8717
519 1 10.1181 7.24956 2.3433
520 1 10.5167 6.55411 0.874093
521 1 11.1959 6.41985 1.66942
522 1 11.7772 6.95412 12.9024
523 1 11.2133 6.97342 2.65747
524 1 12.9143 6.34492 0.642173
525 1 12.5022 6.34014 1.52214
526 1 12.3427 6.91509 12.0699
527 1 12.3383 6.9245 2.31613
528 1 12.7967 7.00701 0.0178954
529 1 9.06629 7.65775 1.61347
530 1 10.1555 8.3965 12.2206
531 1 8.72358 8.46581 3.26762
532 1 9.67098 7.77662 0.966143
533 1 10.4007 7.74794 1.5159
534 1 10.57 8.15269 0.0919341
535 1 9.98043 8.23294 2.41362
536 1 10.7891 7.58168 0.69434
537 1 11.3349 7.54524 1.79526
538 1 11.7865 7.46765 0.704249
539 1 11.3199 8.13973 2.48963
540 1 11.6982 6.4493 0.959313
541 1 12.3476 7.45777 1.65846
542 1 12.8925 8.09452 0.0672223
543 1 12.8785 8.08428 3.39537
544 1 12.8974 7.49923 0.847273
545 1 9.54783 5.06829 3.40828
546 1 9.52887 4.39143 4.02998
547 1 10.6823 4.92511 3.3723
548 1 10.5303 3.85228 3.21536
549 1 11.8365 4.83403 3.29105
550 1 11.6579 4.07112 4.13677
551 1 12.9034 4.79458 3.34566
552 1 12.7584 4.11541 4.02015
553 1 9.45582 6.73575 4.08595
554 1 9.48516 5.70423 4.11862
555 1 10.6756 6.03052 3.32596
556 1 10.5577 5.44141 4.28285
557 1 11.828 5.92321 3.38771
558 1 11.8215 5.29714 4.10883
559 1 12.7774 5.79344 3.0638
560 1 13.0887 5.33993 4.15036
561 1 9.60026 8.49075 3.28083
562 1 9.52626 7.24238 3.33707
563 1 10.5152 7.10074 3.2433
564 1 10.6053 6.57905 4.11402
565 1 11.8365 7.0357 3.24224
566 1 11.6846 6.47701 4.09006
567 1 12.9025 6.93474 3.19764
568 1 12.8195 6.27441 3.97726
569 1 8.95525 8.38468 2.32899
570 1 8.95603 7.91203 4.75972
571 1 10.6834 8.18455 3.13962
572 1 10.7932 7.62442 4.05006
573 1 12.4771 8.03677 2.33363
574 1 11.8525 8.72629 4.10116
575 1 12.8173 7.36253 4.06931
576 1 12.2414 7.4487 4.86188
577 1 0.20284 8.59974 1.55635
578 1 0.634161 9.26955 12.8924
579 1 0.690983 9.15723 3.26551
580 1 0.728558 8.66361 0.739133
581 1 1.30062 8.7804 1.52374
582 1 1.77899 9.39033 12.8691
583 1 1.13248 9.37381 2.3349
584 1 1.91244 8.81952 0.904371
585 1 2.35558 8.96148 1.79669
586 1 2.8281 9.44375 0.0797869
587 1 2.18822 9.5567 2.44722
588 1 2.87743 8.96115 0.832628
589 1 3.48577 9.06604 1.51303
590 1 3.89329 9.71242 12.8854
591 1 3.375 8.51323 2.35568
592 1 4.1278 9.16253 0.771709
593 1 0.0328644 9.1769 2.46388
594 1 0.65213 10.436 12.8981
595 1 0.109858 10.2563 2.38897
596 1 0.600198 9.74482 0.730659
597 1 1.0908 9.93773 1.56617
598 1 1.71806 10.5983 12.8338
599 1 1.23918 10.5023 2.4553
600 1 1.70362 9.97044 0.732398
601 1 2.18369 10.0257 1.54429
602 1 2.85685 10.5015 0.020219
603 1 2.2951 10.5972 2.44425
604 1 2.84305 10.0264 0.862602
605 1 3.40309 10.1937 1.72471
606 1 3.97256 10.7592 12.8457
607 1 3.32436 10.7993 2.39457
608 1 3.90406 10.3732 0.838664
609 1 13.3847 10.8616 1.7249
610 1 0.498308 11.4095 0.0112715
611 1 13.3745 11.4365 2.38844
612 1 0.343238 10.8731 0.802797
613 1 1.01653 10.9555 1.42674
614 1 2.25452 11.6288 12.1931
615 1 1.07378 11.4188 2.39613
616 1 1.67024 11.0942 0.788006
617 1 2.31567 11.0782 1.63896
618 1 2.65659 12.3321 0.882192
619 1 2.1202 11.6949 2.53117
620 1 2.81275 11.1552 0.751331
621 1 3.39141 11.2848 1.53357
622 1 3.9712 11.9007 12.8838
623 1 3.3062 11.9051 2.35361
624 1 3.94159 11.4194 0.70187
625 1 13.3782 12.0802 1.53927
626 1 0.536432 12.5538 12.9041
627 1 13.3627 12.5284 2.34383
628 1 0.583226 12.073 0.750768
629 1 0.955592 12.024 1.71264
630 1 1.69858 0.348754 12.7631
631 1 1.10862 12.5769 2.41331
632 1 1.65103 12.1621 0.828628
633 1 2.17342 12.0982 1.6961
634 1 1.6845 12.7377 12.8072
635 1 2.20751 12.8057 2.41208
636 1 2.87415 12.7586 0.104776
637 1 3.25429 12.3968 1.56057
638 1 3.84306 13.0046 0.0955963
639 1 3.3278 12.9587 2.52947
640 1 3.93094 12.5326 0.866532
641 1 0.634413 9.72157 3.96287
642 1 0.676422 8.66661 4.05843
643 1 1.72664 9.36361 3.20313
644 1 1.85917 8.73446 4.08662
645 1 2.84768 8.50779 3.20825
646 1 2.86802 8.99821 3.99876
647 1 3.42855 9.57395 2.49851
648 1 3.9461 9.68145 3.26824
649 1 0.576117 10.3349 3.20746
650 1 0.0333215 9.58469 4.80519
651 1 1.67865 10.4254 3.36361
652 1 1.70326 9.80657 4.00703
653 1 2.74822 10.5026 3.24204
654 1 2.841 10.1453 4.113
655 1 3.86655 10.7454 3.15814
656 1 3.99326 10.3037 4.08377
657 1 0.459403 11.419 3.16533
658 1 0.555639 10.8786 4.05967
659 1 1.63423 11.5893 3.30517
660 1 1.6632 11.1166 3.98831
661 1 2.90468 11.7428 3.16648
662 1 2.80056 11.2672 3.92839
663 1 3.92577 11.8694 3.17996
664 1 3.97031 11.3002 4.10844
665 1 0.470033 13.1411 3.91064
666 1 0.574793 12.5131 3.19236
667 1 1.58919 12.7863 3.21373
668 1 1.77784 12.2664 4.02911
669 1 2.61925 12.9292 3.2369
670 1 2.88054 12.4061 4.01579
671 1 3.75796 13.1585 3.23659
672 1 3.90126 12.3651 3.83217
673 1 4.42883 9.15747 1.68
674 1 4.95498 9.9628 12.864
675 1 4.61641 9.69823 2.48068
676 1 5.06205 9.33766 0.744945
677 1 5.57202 9.25121 1.6639
678 1 6.28101 11.0021 0.058842
679 1 5.76158 9.90496 2.44802
680 1 6.16104 9.26897 0.93213
681 1 6.79291 9.30974 1.60315
682 1 7.15328 9.84505 12.8985
683 1 6.77562 9.82266 2.37414
684 1 7.35596 9.29448 0.906264
685 1 8.45013 9.181 0.891302
686 1 8.33336 9.72336 0.0155021
687 1 7.84806 10.3657 1.6624
688 1 8.42412 8.55054 0.0146536
689 1 4.48106 10.241 1.61454
690 1 5.06234 11.0151 12.8408
691 1 4.50066 10.7858 2.4035
692 1 5.01841 10.4569 0.796339
693 1 5.63738 10.3365 1.50551
694 1 5.70007 10.9708 12.2204
695 1 5.65881 10.9628 2.32203
696 1 6.13223 9.68919 0.116264
697 1 6.16894 10.4265 0.750274
698 1 7.33999 10.9211 0.0202387
699 1 6.69331 11.0115 2.46205
700 1 6.76108 10.4217 1.56622
701 1 7.41638 10.2875 0.827545
702 1 8.41957 10.891 12.8209
703 1 7.86192 10.7587 2.47155
704 1 8.47624 10.2959 0.805967
705 1 4.3908 11.4025 1.71074
706 1 5.0174 12.0458 0.0155599
707 1 4.48757 12.0026 2.36287
708 1 4.96732 11.4879 0.87502
709 1 5.64515 11.5358 1.50821
710 1 6.04076 12.2652 12.886
711 1 5.61802 11.943 2.42134
712 1 6.13892 11.6815 0.712215
713 1 6.68498 11.4463 1.56924
714 1 7.30241 12.1804 12.795
715 1 6.7747 11.992 2.36838
716 1 7.25737 11.5166 0.779868
717 1 7.8953 11.435 1.57271
718 1 8.47913 11.9483 0.0315472
719 1 7.81778 11.9112 2.48961
720 1 8.47467 11.3423 0.801433
721 1 4.52496 12.574 1.57082
722 1 5.00778 13.1479 12.8752
723 1 4.43404 12.9649 2.59851
724 1 5.1802 12.6715 0.844448
725 1 5.52318 12.6305 1.82606
726 1 6.23622 13.3243 12.9082
727 1 5.53875 13.3775 2.3287
728 1 6.1101 12.7345 0.827484
729 1 6.71484 12.6302 1.71552
730 1 7.38055 13.1554 12.9511
731 1 6.56555 13.3325 2.33655
732 1 7.16369 12.4988 0.79898
733 1 7.81591 12.4913 1.59851
734 1 8.3567 13.0698 0.23503
735 1 7.7497 12.9898 2.48092
736 1 8.33013 12.4424 0.794222
737 1 5.12395 9.75485 3.30992
738 1 5.26913 9.23554 4.14315
739 1 6.20804 9.92092 3.37673
740 1 6.26202 9.37244 4.13222
741 1 7.8925 9.59275 2.53756
742 1 7.28334 9.28404 4.24278
743 1 8.44812 9.56413 3.14833
744 1 8.9336 9.00085 4.76562
745 1 5.0534 10.929 3.15257
746 1 5.07799 10.4257 3.96962
747 1 6.19333 10.9346 3.23454
748 1 6.2507 10.503 4.18557
749 1 7.37149 10.8675 3.22756
750 1 7.45585 10.3564 3.983
751 1 8.45841 10.7226 3.19584
752 1 8.38304 10.2073 4.03016
753 1 5.09911 11.961 3.16099
754 1 5.00771 11.5045 4.01408
755 1 6.18099 12.1695 3.18233
756 1 6.1116 11.5923 3.9812
757 1 7.24772 11.9564 3.25609
758 1 7.18754 11.4348 4.02679
759 1 8.27837 11.858 3.45125
760 1 8.2919 11.2715 4.13458
761 1 5.01868 13.114 3.27156
762 1 4.9256 12.6135 4.06154
763 1 6.1981 13.1387 3.22481
764 1 6.04649 12.7477 3.97563
765 1 7.24409 13.1056 3.234
766 1 7.20039 12.5758 4.10251
767 1 8.3752 13.1232 3.1496
768 1 8.3478 12.598 4.02925
769 1 9.01856 9.09697 1.69108
770 1 9.57265 8.90052 0.746113
771 1 9.10638 9.68662 2.45737
772 1 9.55042 9.49893 0.123267
773 1 10.025 8.81664 1.68588
774 1 10.2859 9.43292 12.2731
775 1 10.2299 9.44066 2.48106
776 1 10.5897 8.80289 0.850733
777 1 11.1637 8.77461 1.60888
778 1 11.7829 9.2024 0.026444
779 1 11.235 9.43011 2.30442
780 1 11.6795 8.50285 0.883719
781 1 12.2459 8.68143 1.43454
782 1 12.8383 9.0925 0.125176
783 1 12.3363 9.14629 2.31398
784 1 13.0341 8.68002 0.894442
785 1 8.97636 10.1943 1.676
786 1 9.52449 10.5513 12.8174
787 1 9.11484 10.8257 2.37316
788 1 9.55807 10.1196 0.881867
789 1 10.1536 9.88876 1.59912
790 1 11.3317 9.89895 1.51045
791 1 10.1055 10.5347 2.41173
792 1 10.7492 9.35857 0.0731085
793 1 11.8506 9.68903 0.792725
794 1 11.7392 10.3897 0.0326328
795 1 11.6178 10.2323 3.22668
796 1 12.8963 9.76838 0.72233
797 1 12.4159 9.82594 1.70363
798 1 12.9281 10.3737 12.8223
799 1 12.2719 10.359 2.55368
800 1 0.0851436 9.68711 1.66607
801 1 8.91536 11.3764 1.64476
802 1 9.45316 11.6359 12.9364
803 1 8.79573 11.8774 2.5282
804 1 9.67253 11.0656 0.853212
805 1 10.1443 11.1217 1.70283
806 1 10.6768 11.4885 0.00805564
807 1 10.0215 11.7811 2.4525
808 1 10.6507 9.98948 0.839928
809 1 10.706 11.1016 0.956109
810 1 11.7718 11.1268 0.511138
811 1 11.1464 11.4728 2.48566
812 1 11.3229 10.9302 1.5374
813 1 12.3132 10.8462 1.64992
814 1 12.8133 11.3425 12.8625
815 1 12.2637 11.5046 2.41042
816 1 12.8002 10.7789 0.804415
817 1 8.96692 12.358 1.65177
818 1 9.46238 12.9812 0.0351511
819 1 9.02643 12.887 2.53131
820 1 9.54987 12.276 0.734434
821 1 9.98895 12.1785 1.50535
822 1 10.6035 12.819 0.114601
823 1 10.0631 12.7754 2.30651
824 1 10.6758 12.1865 0.675041
825 1 11.0983 12.1004 1.66122
826 1 0.0176405 12.6019 12.0733
827 1 11.2684 12.616 2.38185
828 1 11.7027 12.0678 0.783624
829 1 12.3095 11.8984 1.50659
830 1 11.6331 12.4791 12.8543
831 1 12.3811 12.5145 2.5678
832 1 12.8779 11.8491 0.76165
833 1 9.64209 9.45644 3.27841
834 1 10.203 8.87504 4.78165
835 1 10.8374 9.27503 3.19216
836 1 10.7345 8.79785 3.96979
837 1 11.1823 10.5333 2.4758
838 1 11.9046 8.12665 3.19488
839 1 12.9322 9.20697 3.19965
840 1 12.9239 8.64524 4.04959
841 1 9.44553 10.5906 3.1833
842 1 9.45162 10.0313 4.1339
843 1 10.5385 10.4238 3.38572
844 1 10.7055 9.97359 4.13793
845 1 11.8964 9.72944 4.13802
846 1 11.8827 9.22357 3.23705
847 1 12.8263 10.3248 3.23411
848 1 12.9544 9.75995 4.04641
849 1 9.54296 11.8022 3.13049
850 1 9.4692 11.1885 3.89985
851 1 10.6728 11.5469 3.25116
852 1 10.5336 11.175 4.15957
853 1 11.7958 11.3695 3.39396
854 1 11.7128 10.7306 4.00076
855 1 12.8109 11.3301 3.30715
856 1 12.8835 10.8221 4.10261
857 1 9.53671 12.9771 3.34392
858 1 9.42443 12.2822 3.96247
859 1 10.6164 12.7277 3.13903
860 1 10.5589 12.1639 4.05263
861 1 11.6961 12.5235 3.23309
862 1 11.7789 12.0468 3.97628
863 1 12.9375 12.4461 3.30601
864 1 12.9233 11.8699 4.13559
865 1 13.3906 13.163 4.76434
866 1 13.3003 0.198778 5.63851
867 1 1.02853 13.321 4.93326
868 1 1.00679 0.520984 5.62452
869 1 2.08189 13.3727 4.76224
870 1 2.24117 0.455021 5.53978
871 1 3.40835 13.4053 4.8119
872 1 3.35053 0.574205 5.56388
873 1 13.3965 0.830029 4.79601
874 1 13.4024 1.43577 5.59784
875 1 1.09079 0.977942 4.83301
876 1 1.11066 1.59251 5.55414
877 1 2.14802 1.17957 4.82462
878 1 2.11966 1.66481 5.63187
879 1 3.14071 1.20532 4.97909
880 1 3.35911 1.7972 5.77781
881 1 13.3749 1.90489 4.86844
882 1 0.0185974 2.54467 5.51043
883 1 1.06501 2.13146 4.74094
884 1 1.05589 2.64463 5.70375
885 1 2.25256 2.29023 4.8666
886 1 2.16223 2.77702 5.6261
887 1 3.27958 2.9459 5.82698
888 1 3.9007 3.02447 6.51755
889 1 13.3669 3.07619 4.72848
890 1 0.0348141 3.64972 5.58583
891 1 1.1275 3.22789 4.83594
892 1 1.03121 3.74178 5.69545
893 1 2.17181 3.40748 4.89
894 1 2.33925 3.8766 5.7166
895 1 3.36979 3.42981 4.78509
896 1 3.29752 4.06298 5.67357
897 1 0.045362 13.2311 7.87835
898 1 0.566432 0.348687 6.53678
899 1 0.588388 13.2584 7.15053
900 1 1.14916 13.2619 8.00219
901 1 1.67386 0.500365 6.16695
902 1 1.68736 13.4082 7.10652
903 1 2.14503 13.2486 8.11164
904 1 2.81342 0.603166 6.43533
905 1 2.68718 13.423 7.14479
906 1 3.27226 0.060031 7.96854
907 1 3.82128 0.795829 6.42196
908 1 3.90572 0.101746 7.25308
909 1 0.060154 0.829508 8.05272
910 1 0.531923 1.46979 6.44972
911 1 0.615505 1.01427 7.25404
912 1 1.09441 0.881969 8.1329
913 1 1.60531 1.60012 6.54111
914 1 1.70281 0.944815 7.29962
915 1 2.29703 1.07551 8.12651
916 1 2.64887 1.63581 6.37484
917 1 2.80971 1.14949 7.217
918 1 3.38813 0.580685 8.91705
919 1 3.76724 2.39834 7.22545
920 1 3.93383 1.26877 7.2337
921 1 13.3491 1.95264 8.2368
922 1 0.482756 2.48146 6.49479
923 1 0.465499 2.0601 7.35732
924 1 1.13256 2.067 8.07859
925 1 1.63463 2.71241 6.5561
926 1 1.72865 2.093 7.36136
927 1 2.35514 2.24171 8.15353
928 1 2.67093 2.77748 6.52824
929 1 2.88753 2.17708 7.32393
930 1 3.45023 1.61585 8.91934
931 1 3.29978 3.49625 8.00533
932 1 3.41404 2.30598 8.23151
933 1 0.0299971 3.18328 7.95601
934 1 0.56188 3.62622 6.58745
935 1 0.645388 3.08203 7.36943
936 1 1.22317 3.07523 8.21667
937 1 1.58769 4.06131 6.35537
938 1 1.74041 3.36509 7.28992
939 1 2.26564 3.2316 8.20922
940 1 2.77904 4.03395 6.59349
941 1 2.77819 3.31803 7.2421
942 1 3.23649 3.89213 8.92992
943 1 4.34182 4.11955 5.59919
944 1 3.96265 1.81003 6.3027
945 1 4.48374 0.160373 4.8886
946 1 4.50887 0.748269 5.66914
947 1 5.54008 0.43221 4.87833
948 1 5.61782 0.940081 5.6966
949 1 6.70041 0.380785 4.89214
950 1 6.73673 0.998099 5.66495
951 1 7.71255 0.276067 4.88048
952 1 8.2442 0.732528 6.51339
953 1 3.8059 1.24661 4.11221
954 1 3.96484 3.48347 4.04882
955 1 5.50714 1.43154 4.76626
956 1 5.66064 2.15152 5.61754
957 1 6.68203 1.57427 4.88452
958 1 6.82241 3.11663 5.66688
959 1 7.77973 1.37655 4.79762
960 1 7.79075 1.88164 5.66765
961 1 4.66991 1.90778 5.59686
962 1 5.03365 3.73013 7.11596
963 1 5.50869 2.58869 4.89947
964 1 4.98385 3.03556 6.47614
965 1 6.66269 2.68825 4.78611
966 1 6.53284 4.3197 5.68101
967 1 7.80888 2.43158 4.85113
968 1 7.90343 2.97813 5.66782
969 1 5.50763 3.78642 4.78385
970 1 3.81184 4.12831 6.49602
971 1 4.93668 4.69088 4.0077
972 1 5.52862 4.85513 4.87627
973 1 6.7703 3.68471 4.95569
974 1 6.54107 4.80901 4.93659
975 1 7.76825 4.16333 5.6421
976 1 8.31846 4.118 6.53114
977 1 4.3934 0.271773 8.07252
978 1 4.98018 0.709622 6.54167
979 1 4.94394 0.297905 7.3053
980 1 5.54666 0.406698 8.07915
981 1 6.17434 0.955537 6.44995
982 1 6.12096 0.361634 7.37076
983 1 6.71101 13.2682 8.97544
984 1 7.83533 0.936152 5.61306
985 1 6.63072 0.363752 8.14554
986 1 7.84251 0.208139 8.1329
987 1 8.39258 0.153843 7.25491
988 1 8.29557 12.9526 6.4419
989 1 4.48823 1.45732 8.05796
990 1 4.9986 1.92788 6.51167
991 1 5.02772 1.48179 7.17568
992 1 5.55616 1.42628 8.10233
993 1 6.14814 2.08144 6.42944