data.lammps (converted from cfg to data.lammps)
    
2298  atoms
1  atom types
0.0   13.4375  xlo xhi
0.0   13.4375  ylo yhi
0.0   12.952  zlo zhi
0.0  0.0 0.0 xy xz yz
    
    
    
Atoms
  
1 1 0.0186053 0.365871 2.23123
2 1 0.48765 0.279157 12.8338
3 1 0.137566 1.14023 1.65683
4 1 0.611301 13.357 0.812346
5 1 1.15249 13.3687 1.57174
6 1 2.22775 0.730676 12.2518
7 1 1.22932 0.374906 2.47988
8 1 1.70448 13.3315 0.699905
9 1 2.26206 0.171946 1.48859
10 1 2.92649 1.28909 0.890104
11 1 2.349 0.60519 2.50502
12 1 2.90347 0.101492 0.86872
13 1 3.47819 0.0787689 1.63084
14 1 3.99641 0.795892 12.9439
15 1 3.32463 0.818951 2.38755
16 1 4.01521 0.268778 0.890589
17 1 12.958 0.81911 0.926172
18 1 1.13445 2.24563 11.3635
19 1 0.0143328 1.56593 2.41442
20 1 0.583917 0.990991 0.815457
21 1 1.21482 0.907198 1.48688
22 1 0.600926 1.45919 0.0122658
23 1 1.18339 1.39367 2.42211
24 1 1.76512 1.09859 0.730418
25 1 2.29441 1.14453 1.60117
26 1 2.65354 1.87335 12.7707
27 1 2.13795 1.7315 2.41287
28 1 3.35748 1.94981 2.51393
29 1 3.86915 1.34426 0.680923
30 1 3.91152 2.06233 12.8341
31 1 5.09523 2.06452 3.2956
32 1 4.82214 1.52031 0.788886
33 1 13.4208 2.13511 1.57252
34 1 0.437297 2.7636 0.152259
35 1 13.4172 2.66518 2.49725
36 1 0.575724 2.08985 0.84099
37 1 1.64799 2.25245 0.853168
38 1 1.58925 2.98677 12.9463
39 1 1.16675 2.69631 2.30347
40 1 2.349 2.1855 1.50312
41 1 2.77959 2.41636 0.653325
42 1 2.78713 3.12615 12.8056
43 1 2.21582 2.82244 2.24246
44 1 3.29801 2.48488 1.52968
45 1 3.40684 1.3667 1.69599
46 1 3.94569 3.18848 0.0549877
47 1 2.742 2.98874 3.13801
48 1 3.83255 2.39389 0.765567
49 1 13.3419 3.17141 1.67389
50 1 0.515117 3.16522 0.932645
51 1 0.036243 3.7244 2.4601
52 1 1.15619 3.33818 1.579
53 1 1.17755 2.10145 1.69906
54 1 1.78356 3.99913 0.0524293
55 1 0.987991 3.94708 2.35517
56 1 1.72007 3.25573 0.851124
57 1 2.36356 3.51714 1.58841
58 1 2.836 4.19351 12.8883
59 1 2.13898 3.9345 2.4073
60 1 2.76177 3.42957 0.696346
61 1 3.41194 3.51628 1.53758
62 1 3.93426 4.32868 12.9267
63 1 3.33052 4.01152 2.40649
64 1 3.89213 3.67885 0.732436
65 1 0.572932 0.435417 3.14545
66 1 0.632487 13.3757 4.11205
67 1 1.69151 0.586566 3.22684
68 1 1.68881 0.00813631 4.00921
69 1 2.81497 0.750982 3.39187
70 1 2.8624 0.122051 4.03285
71 1 3.87582 0.781954 3.24738
72 1 4.06772 0.530729 4.18714
73 1 0.55339 1.5419 3.16644
74 1 0.466042 1.04435 4.09826
75 1 1.66298 1.67278 3.28393
76 1 1.65441 1.20669 4.04066
77 1 2.73303 1.7526 3.18453
78 1 2.85697 1.34996 4.1481
79 1 3.9021 2.5315 3.96062
80 1 4.4516 2.03618 2.41822
81 1 0.736962 2.66447 3.14565
82 1 0.567791 2.07819 3.97743
83 1 1.77817 2.79391 3.13499
84 1 1.76961 2.30277 4.06815
85 1 2.89962 2.44403 3.90753
86 1 3.37104 2.70881 4.92159
87 1 3.35512 3.07803 2.46192
88 1 4.34495 2.63168 5.01548
89 1 0.381332 3.60925 3.34632
90 1 0.540941 3.07625 4.09428
91 1 1.52524 3.8845 3.04786
92 1 1.65742 3.33621 3.97962
93 1 2.69802 4.09957 3.23584
94 1 2.74933 3.51568 3.98139
95 1 3.85061 4.25029 3.13775
96 1 3.90474 3.08336 3.18536
97 1 4.53893 0.424125 1.58849
98 1 5.17258 0.886462 0.0721446
99 1 4.56403 0.890429 2.60637
100 1 5.09824 0.316851 0.73134
101 1 5.476 0.348988 1.78587
102 1 6.32566 0.758267 12.9503
103 1 5.70528 1.02944 2.43606
104 1 6.04632 0.281634 0.894661
105 1 6.65592 0.255118 1.58882
106 1 7.27665 0.504019 0.0609588
107 1 6.72613 0.873474 2.35518
108 1 7.91537 0.0885021 1.59497
109 1 7.30315 0.139481 0.96806
110 1 7.78719 0.773823 12.0769
111 1 7.85688 0.512423 2.53899
112 1 8.55584 2.12089e-05 0.845658
113 1 4.5134 1.43128 1.76205
114 1 5.16685 2.03721 0.0813891
115 1 3.89597 1.86343 3.17224
116 1 5.58664 1.45113 1.49278
117 1 6.18023 1.32036 0.896922
118 1 6.13133 2.60909 0.886904
119 1 5.54109 1.95411 2.34484
120 1 6.1425 2.01611 0.0330171
121 1 6.89008 1.38056 1.50601
122 1 6.63419 1.88098 12.1993
123 1 6.70056 1.98913 2.44352
124 1 7.2833 1.26789 0.607563
125 1 7.82689 1.11802 1.64664
126 1 8.75035 1.64014 12.1213
127 1 7.91004 1.68673 2.43082
128 1 8.38071 1.57596 0.0486187
129 1 4.40714 2.55451 1.59606
130 1 5.10397 3.20729 0.0843912
131 1 4.56402 3.07368 2.47585
132 1 4.88061 2.6597 0.850509
133 1 5.54759 2.57915 1.51112
134 1 6.04186 3.08243 12.8844
135 1 5.57495 3.17554 2.4078
136 1 6.72234 2.49701 1.65729
137 1 7.83334 2.83736 2.34646
138 1 7.75653 2.78408 12.1097
139 1 6.68646 3.0917 2.39142
140 1 7.27966 1.92073 0.033857
141 1 7.27809 2.4782 0.899264
142 1 8.35463 2.68071 12.8786
143 1 7.75692 3.51252 1.74961
144 1 7.81911 2.30167 1.58807
145 1 4.49376 3.61594 1.58387
146 1 5.05921 4.30423 12.8662
147 1 4.53579 4.15868 2.4239
148 1 5.05097 3.82965 0.788742
149 1 5.65106 3.7017 1.52906
150 1 6.03559 4.29507 12.925
151 1 5.55508 4.15899 2.38543
152 1 6.23238 3.72647 0.683411
153 1 7.16759 4.01785 12.8543
154 1 6.72478 4.14732 12.0384
155 1 6.68865 3.67099 1.64551
156 1 7.28935 3.47267 0.781013
157 1 7.86481 4.12537 2.6144
158 1 8.3938 3.76891 12.8959
159 1 8.40447 3.97794 3.20777
160 1 8.39158 3.25404 0.801996
161 1 5.08337 0.967599 3.27121
162 1 5.10589 0.380868 4.10467
163 1 6.23913 0.948528 3.27034
164 1 6.1069 0.345989 4.05193
165 1 7.20749 0.766873 3.27528
166 1 7.30628 0.142338 4.0236
167 1 8.3907 0.635137 3.21847
168 1 8.38371 0.00284636 4.07219
169 1 4.87664 1.55848 3.95417
170 1 4.4143 1.51138 4.9867
171 1 6.0895 2.08136 3.20478
172 1 6.15685 1.46196 4.02824
173 1 7.30221 1.78457 3.13708
174 1 7.3471 1.31597 4.07818
175 1 8.47924 1.72953 3.29525
176 1 8.38384 1.10572 4.01674
177 1 5.04265 3.1757 3.34255
178 1 4.9758 2.64755 4.15398
179 1 6.10866 3.24564 3.2569
180 1 6.23867 2.52374 3.9989
181 1 7.33478 2.94206 3.19658
182 1 7.19038 2.2555 3.93365
183 1 8.3033 2.85215 3.22501
184 1 8.38538 2.28276 4.06403
185 1 5.02842 3.84904 4.11611
186 1 4.34207 3.72259 4.75256
187 1 6.67023 4.27389 2.33246
188 1 6.02191 3.58174 4.15855
189 1 7.09719 4.08371 3.22778
190 1 7.32768 3.44722 4.06839
191 1 8.40576 5.12661 3.27936
192 1 7.78885 3.38458 4.80436
193 1 8.98469 13.3638 1.82082
194 1 8.93441 0.494969 12.1475
195 1 9.00104 0.537585 2.50555
196 1 9.53647 13.2412 0.884851
197 1 10.1806 13.1441 1.67704
198 1 10.655 0.107212 0.0886096
199 1 10.129 0.249912 2.44788
200 1 10.6583 13.1073 0.952408
201 1 11.2819 13.2081 1.66791
202 1 11.2324 0.171731 12.1907
203 1 11.246 0.197711 2.55693
204 1 11.7718 13.0749 0.866146
205 1 12.3921 13.0787 1.69486
206 1 11.8293 0.1986 12.9249
207 1 12.3549 0.32711 2.37263
208 1 12.9464 13.1821 0.862
209 1 8.47452 1.12508 0.919965
210 1 9.58518 2.02131 0.774348
211 1 9.10626 1.01068 1.74654
212 1 9.48036 0.42031 12.9432
213 1 10.2097 0.90348 1.6936
214 1 10.0035 2.56464 12.2919
215 1 9.57345 1.48978 3.18171
216 1 10.6594 0.787138 0.711848
217 1 11.205 0.836152 1.70184
218 1 11.698 1.83711 0.798989
219 1 11.339 1.25044 2.54342
220 1 11.6993 0.745167 0.788141
221 1 12.271 0.87727 1.5817
222 1 12.7827 0.415797 0.110697
223 1 12.3939 1.37334 2.39288
224 1 0.104785 13.1532 1.67734
225 1 9.07921 2.17266 1.63099
226 1 9.03452 2.89481 12.1124
227 1 8.97558 2.79059 2.49737
228 1 10.1331 2.08076 1.83983
229 1 10.1087 1.33188 2.50883
230 1 10.1333 2.04454 11.3283
231 1 10.1048 2.69142 2.51815
232 1 10.4885 2.01503 0.869047
233 1 11.1759 1.86444 1.56349
234 1 12.3086 2.38697 12.0293
235 1 11.226 2.35249 2.47118
236 1 11.7255 2.45659 0.0301504
237 1 12.3841 2.03213 1.45727
238 1 11.8084 3.51251 0.0397866
239 1 12.2479 2.40299 2.39428
240 1 12.8886 2.14382 0.680777
241 1 8.89165 3.1741 1.57552
242 1 9.57664 4.35379 0.993645
243 1 8.97655 3.78043 2.39782
244 1 9.49998 3.23786 0.69417
245 1 10.011 3.10965 1.62798
246 1 10.5528 3.5813 12.826
247 1 10.1424 3.61574 2.41193
248 1 10.2196 3.09712 11.3122
249 1 11.2197 2.94628 1.68928
250 1 12.3211 3.57929 12.1914
251 1 11.214 4.09743 1.59584
252 1 11.8543 4.22175 0.750515
253 1 12.2346 3.12191 1.44056
254 1 12.864 3.19684 0.698316
255 1 12.2625 3.49179 2.3713
256 1 12.8009 2.5728 12.6819
257 1 9.51235 0.375295 3.2995
258 1 9.48864 13.2758 4.14127
259 1 10.6437 0.248513 3.37844
260 1 10.5862 13.0929 4.09472
261 1 11.8953 0.127723 3.16815
262 1 11.8075 13.1974 4.1097
263 1 13.0913 0.35608 3.2076
264 1 12.9473 13.1605 4.16408
265 1 8.93938 1.70643 2.45798
266 1 9.44596 0.913612 4.05061
267 1 10.671 1.42643 3.21414
268 1 10.6201 0.874766 4.08867
269 1 11.9602 1.472 3.20442
270 1 11.6535 0.779114 3.87217
271 1 13.0406 1.38827 3.34024
272 1 12.6673 0.833081 4.06404
273 1 9.50723 2.64938 3.20767
274 1 9.49142 2.10286 3.97265
275 1 10.7772 2.54917 3.3094
276 1 10.6498 1.94412 4.01605
277 1 11.7867 2.39428 3.43447
278 1 11.797 1.7505 4.18135
279 1 12.8803 2.4065 3.13507
280 1 12.9514 2.01693 4.11824
281 1 9.53556 3.83678 3.33263
282 1 9.43396 3.23285 4.00296
283 1 12.8191 3.70903 3.11839
284 1 10.6449 3.07337 4.01507
285 1 11.1512 3.59948 2.33566
286 1 11.8578 2.94781 4.12625
287 1 11.695 3.51373 3.1703
288 1 12.8609 3.10198 3.82234
289 1 13.3931 4.29746 1.71472
290 1 0.616625 4.87285 0.00478911
291 1 0.000182915 4.94539 2.37777
292 1 0.635728 4.35392 0.852222
293 1 1.17648 4.55707 1.58276
294 1 1.6249 5.01915 0.059782
295 1 1.15473 5.03294 2.52502
296 1 1.81545 4.45124 0.847273
297 1 2.28051 4.67935 1.75516
298 1 2.62558 5.21868 12.8258
299 1 2.30445 5.14351 2.54318
300 1 2.86444 4.63023 0.847627
301 1 3.37175 4.73051 1.62212
302 1 3.95269 5.5294 12.9406
303 1 3.39666 5.14769 2.43248
304 1 3.95726 4.76914 0.769867
305 1 0.072657 5.4691 1.67081
306 1 0.468365 5.99064 12.9288
307 1 13.4172 6.10243 2.39625
308 1 0.560934 5.45124 0.887571
309 1 1.30335 5.6131 1.54802
310 1 1.59245 6.24742 12.8275
311 1 1.05855 6.03086 2.54187
312 1 1.68727 5.72132 0.709297
313 1 2.31438 5.67474 1.77958
314 1 2.86791 6.34147 0.174921
315 1 2.29706 6.32206 2.57754
316 1 2.75836 5.63437 0.843402
317 1 3.32851 5.9055 1.83321
318 1 3.86708 6.45786 0.107322
319 1 3.49973 6.46681 2.51137
320 1 3.88873 5.84969 0.939284
321 1 0.0875774 6.58265 1.58373
322 1 0.451761 7.14765 12.8834
323 1 0.0670641 7.09328 2.5133
324 1 0.556419 6.48461 0.699184
325 1 1.10424 6.5544 1.66216
326 1 1.71981 7.22737 0.00271391
327 1 1.14229 7.1876 2.48268
328 1 1.6317 6.73709 0.891745
329 1 2.17256 6.77826 1.73765
330 1 2.62999 7.36516 12.9476
331 1 2.30688 7.41946 2.40375
332 1 2.75884 6.78467 0.943404
333 1 3.33378 7.02268 1.63114
334 1 3.85134 7.565 12.9469
335 1 3.32968 7.58243 2.53797
336 1 3.94286 6.85674 0.868228
337 1 0.140497 7.5981 1.52198
338 1 0.528197 8.20873 12.8127
339 1 13.3691 8.10069 2.36923
340 1 0.596563 7.67527 0.672833
341 1 1.14656 7.79882 1.64297
342 1 1.7306 8.31957 0.00297448
343 1 1.09289 8.29967 2.3738
344 1 1.64924 7.81522 0.900635
345 1 2.32193 8.04475 1.55291
346 1 2.72713 8.61016 0.132136
347 1 2.21684 8.52095 2.52447
348 1 2.8117 7.89313 0.727797
349 1 3.49372 8.12903 1.6701
350 1 3.89052 8.67528 0.000698311
351 1 2.81022 9.73766 3.25204
352 1 3.93003 7.95741 0.72791
353 1 0.502425 4.80346 3.19023
354 1 0.638586 4.31123 3.92957
355 1 1.7325 4.98804 3.28245
356 1 1.56992 4.31389 4.00809
357 1 2.89274 5.14737 3.32215
358 1 2.69 4.58068 4.06837
359 1 3.97003 5.43586 3.30325
360 1 3.80366 4.8153 3.98764
361 1 0.394907 5.98866 3.35865
362 1 0.620615 5.44651 4.05164
363 1 1.54482 6.19106 3.2498
364 1 1.76233 5.63324 3.96234
365 1 2.83109 6.29195 3.22676
366 1 2.74876 5.82337 4.11213
367 1 4.02609 6.48859 3.29714
368 1 3.87493 5.9386 4.06088
369 1 0.557164 7.09977 3.46011
370 1 0.570906 6.62772 4.18628
371 1 1.68057 7.38529 3.27126
372 1 1.70585 6.76105 3.99923
373 1 2.72475 7.37459 3.34914
374 1 2.79696 6.86441 4.14082
375 1 5.08498 7.7311 3.14829
376 1 3.44488 7.00721 4.89639
377 1 0.501591 8.24665 3.1482
378 1 0.430465 7.91443 3.95865
379 1 1.60899 8.39114 3.29009
380 1 1.42843 7.79 4.20538
381 1 3.77373 8.63045 3.1865
382 1 2.76076 7.98275 4.11321
383 1 3.88907 7.62182 3.29582
384 1 3.86647 8.27445 3.98451
385 1 4.49186 4.77965 1.66353
386 1 5.01353 5.49924 12.9159
387 1 4.42594 5.30013 2.43162
388 1 5.01791 4.88117 0.732723
389 1 5.68823 5.27583 2.47785
390 1 6.16338 4.84599 0.93827
391 1 6.26584 5.36957 3.22036
392 1 5.5746 4.80639 1.57338
393 1 6.85251 4.78446 1.57641
394 1 6.82876 5.17004 12.1068
395 1 6.72934 5.4848 2.40792
396 1 7.29964 4.55525 0.696533
397 1 7.84332 4.54171 1.57856
398 1 8.34215 5.09301 12.908
399 1 7.84298 5.2009 2.4186
400 1 8.41843 4.45648 0.622871
401 1 4.46003 5.88467 1.62072
402 1 5.01098 6.43057 12.8612
403 1 4.52078 6.47666 2.42294
404 1 5.05301 6.0307 0.957206
405 1 5.70145 5.97005 1.6961
406 1 6.12556 6.51035 12.8985
407 1 6.13446 6.49385 3.07771
408 1 6.10583 5.9284 0.781627
409 1 6.67005 5.93345 1.61277
410 1 7.17013 5.70464 0.839568
411 1 6.92012 6.4677 2.57413
412 1 7.17303 5.1536 0.0243862
413 1 7.82832 5.66326 1.51041
414 1 8.26197 6.11348 12.9393
415 1 7.98912 6.23336 2.34641
416 1 8.3984 5.5362 0.821635
417 1 4.4532 7.07484 1.6981
418 1 5.07751 7.55307 12.8083
419 1 4.41451 7.6529 2.46977
420 1 5.01884 7.00053 0.690997
421 1 5.52219 6.55702 2.43521
422 1 6.15619 7.56975 0.00375493
423 1 5.60162 7.13584 1.62031
424 1 6.07876 7.06865 0.780355
425 1 6.6524 6.94646 1.58508
426 1 7.22534 7.37322 0.0405357
427 1 6.74456 7.52431 2.3465
428 1 7.31431 6.80282 0.900804
429 1 7.87433 6.8438 1.71646
430 1 8.31181 6.67021 0.727497
431 1 7.95237 7.29929 2.54866
432 1 8.89658 6.57453 1.54563
433 1 4.41963 8.14299 1.55397
434 1 5.02967 8.68409 12.9099
435 1 4.58853 8.80656 2.41717
436 1 5.05661 8.1334 0.830495
437 1 5.64953 7.64242 2.46839
438 1 6.07133 8.57204 12.901
439 1 5.58022 8.30259 1.64993
440 1 6.14352 8.17114 0.854741
441 1 6.67599 8.13475 1.66472
442 1 7.30299 8.54653 0.11691
443 1 6.77095 8.61888 2.50696
444 1 7.22135 7.85422 0.802261
445 1 7.80943 7.88977 1.58013
446 1 8.37072 7.85727 0.777369
447 1 7.79753 9.0173 1.63563
448 1 8.38823 7.39306 0.020289
449 1 5.0584 5.57316 3.2084
450 1 5.13951 4.34852 3.22689
451 1 6.2448 5.76021 4.09068
452 1 6.13619 4.32642 3.16239
453 1 7.35617 5.15841 3.23632
454 1 7.23815 4.56605 4.10747
455 1 8.38691 5.64079 4.15859
456 1 8.38515 3.40264 4.07653
457 1 5.07415 6.02402 4.12945
458 1 4.45166 5.39505 5.65346
459 1 6.09943 6.86484 4.02919
460 1 6.21806 7.60451 3.3459
461 1 7.41597 6.26595 3.40259
462 1 8.44984 6.2303 6.55417
463 1 8.45821 6.19943 3.1819
464 1 7.94606 6.19635 5.70363
465 1 4.94327 8.27883 4.07169
466 1 5.06911 6.6514 3.32864
467 1 6.09907 8.70831 3.27723
468 1 5.08589 7.17709 4.07609
469 1 6.16413 8.14623 4.03777
470 1 7.32165 7.43919 3.20824
471 1 8.56684 7.24456 3.28596
472 1 8.37047 6.67429 4.11716
473 1 4.96481 8.77488 3.25593
474 1 4.37383 8.1401 4.84634
475 1 5.64783 8.13677 4.82914
476 1 6.79224 8.07755 4.78785
477 1 7.24553 8.53018 3.27783
478 1 6.71573 9.21851 4.84076
479 1 7.84379 8.35733 2.48888
480 1 8.33626 7.68464 4.12982
481 1 8.82179 4.26192 1.56012
482 1 9.52497 4.88211 12.9494
483 1 8.92658 4.96178 2.30719
484 1 10.0796 4.27235 1.64879
485 1 10.5353 3.01894 0.857262
486 1 10.1673 4.95447 12.152
487 1 10.123 4.74211 2.45712
488 1 10.5827 4.62452 0.046198
489 1 10.7883 4.0526 0.776321
490 1 12.2992 4.79576 12.1881
491 1 11.3101 4.74244 2.36066
492 1 11.8041 4.68253 0.00921309
493 1 12.3872 4.20205 1.54618
494 1 12.9544 4.91388 12.9098
495 1 12.3537 4.67383 2.36182
496 1 12.9562 4.16682 0.758081
497 1 8.92255 5.46874 1.61878
498 1 9.37119 5.98297 12.9289
499 1 9.50924 5.97273 3.22465
500 1 9.54431 5.41772 0.822821
501 1 10.2045 5.29075 1.56678
502 1 10.4728 5.99698 12.8914
503 1 10.0761 5.81336 2.38617
504 1 10.6161 5.37685 0.670502
505 1 11.1314 5.24209 1.52472
506 1 11.2103 5.95262 12.2323
507 1 11.3018 5.74338 2.43678
508 1 11.6607 5.32441 0.69806
509 1 12.2235 5.23538 1.53222
510 1 12.8254 5.96698 0.0317665
511 1 12.3499 5.75833 2.3525
512 1 12.8625 5.33375 0.780873
513 1 9.05299 6.01317 2.31513
514 1 9.5557 7.15914 12.9291
515 1 9.11239 7.18021 2.41601
516 1 9.49957 6.50841 0.756705
517 1 10.0581 6.38723 1.59268
518 1 10.7976 7.04887 0.054553
519 1 10.0642 7.00764 2.41586
520 1 10.5248 6.4604 0.7975
521 1 11.1983 6.34082 1.52413
522 1 11.6917 7.09125 0.0454883
523 1 11.1727 6.90677 2.2921
524 1 12.8199 6.4543 0.902801
525 1 12.2533 6.38455 1.60816
526 1 12.2496 6.94175 12.2052
527 1 12.4388 6.97037 2.26537
528 1 12.897 7.05416 12.936
529 1 8.85004 7.72115 1.72535
530 1 10.063 8.13489 12.1862
531 1 8.40497 8.29001 3.29978
532 1 9.42579 7.57647 0.870495
533 1 10.0775 7.65443 1.60623
534 1 10.6951 8.11742 0.16361
535 1 10.1205 8.10964 2.44162
536 1 10.5689 7.55904 0.950631
537 1 11.3323 7.5718 1.63194
538 1 11.8045 7.49451 0.944583
539 1 11.2476 8.03147 2.45373
540 1 11.805 6.48191 0.813797
541 1 12.4828 7.61181 1.72632
542 1 12.7376 8.2203 12.9341
543 1 12.8085 8.14854 3.18029
544 1 12.8525 7.60967 0.742191
545 1 9.35269 4.80416 3.1666
546 1 9.60615 4.44197 4.0669
547 1 10.6813 4.7047 3.13098
548 1 10.5543 3.68405 3.35669
549 1 11.7915 4.7017 3.21397
550 1 11.7964 3.91503 3.99556
551 1 12.8643 4.8431 3.22292
552 1 12.8353 4.26291 4.07755
553 1 9.53517 6.49422 4.12839
554 1 9.61397 5.4109 3.97444
555 1 10.6113 5.85843 3.12631
556 1 10.5916 5.32402 3.86856
557 1 11.7274 5.88223 3.19228
558 1 11.6111 5.25873 3.89095
559 1 12.8131 5.87025 3.37331
560 1 12.8906 5.27959 4.10308
561 1 9.50176 8.15929 3.27468
562 1 9.5974 7.04427 3.2996
563 1 10.7008 6.92225 3.18154
564 1 10.7764 6.41491 4.03189
565 1 11.8183 6.9153 3.05262
566 1 11.7597 6.37308 4.02333
567 1 12.8599 6.95752 3.1713
568 1 12.8332 6.49691 4.05028
569 1 9.00243 8.35943 2.41456
570 1 9.03758 7.76726 4.86954
571 1 10.5933 8.03562 3.20453
572 1 10.6675 7.49509 4.06045
573 1 12.2582 8.27288 2.37748
574 1 11.7527 8.5393 4.04284
575 1 12.9189 7.55397 4.00498
576 1 12.3565 7.38119 4.66958
577 1 0.0326005 8.76738 1.6241
578 1 0.575972 9.46075 0.017043
579 1 13.361 9.19349 2.39334
580 1 0.540736 8.81137 0.727307
581 1 1.10958 8.94774 1.70466
582 1 1.6441 9.54154 12.8824
583 1 0.940026 9.46422 2.5504
584 1 1.56223 8.93364 0.611284
585 1 2.09452 8.94858 1.54831
586 1 2.90566 9.69321 12.8683
587 1 2.12583 9.62163 2.47357
588 1 2.759 9.10526 0.894297
589 1 3.42928 9.22214 1.63993
590 1 3.87808 9.95689 12.9336
591 1 3.26903 8.57425 2.43632
592 1 3.87726 9.28295 0.721793
593 1 13.3397 9.79019 1.61741
594 1 0.52879 10.4715 0.0190232
595 1 0.0728218 10.4095 2.42167
596 1 0.627484 9.90731 0.942535
597 1 1.11776 10.0098 1.67719
598 1 1.55718 10.7101 0.133106
599 1 1.05699 10.4764 2.57587
600 1 1.73568 10.0719 0.749066
601 1 2.19003 10.061 1.69926
602 1 2.75666 10.8425 12.9449
603 1 2.23311 10.6714 2.43039
604 1 2.67006 10.0873 0.729791
605 1 3.24973 10.217 1.55515
606 1 3.78357 10.89 12.929
607 1 3.38187 10.7763 2.36085
608 1 3.85736 10.437 0.880746
609 1 13.3753 11.0329 1.764
610 1 0.494933 11.4515 0.16587
611 1 13.4226 11.6115 2.52185
612 1 0.602242 10.9867 0.977666
613 1 1.14044 11.1715 1.70514
614 1 2.20426 11.8668 12.0453
615 1 1.10724 11.6578 2.48803
616 1 1.82911 11.1317 0.910557
617 1 2.33579 11.2935 1.64363
618 1 2.70141 12.448 0.789739
619 1 2.29109 11.8737 2.35562
620 1 2.94613 11.3306 0.809803
621 1 3.42654 11.4049 1.6728
622 1 4.00139 11.9365 0.0401221
623 1 3.4173 12.0317 2.40903
624 1 4.06135 11.4322 0.87383
625 1 0.00516712 12.0621 1.56587
626 1 0.58081 12.7139 0.0423912
627 1 13.3094 12.6213 2.51253
628 1 0.548673 12.1325 0.697192
629 1 1.05737 12.2243 1.61378
630 1 1.62525 0.544121 0.0806423
631 1 1.11749 12.7641 2.35416
632 1 1.61789 12.146 0.835203
633 1 2.17303 12.3759 1.62399
634 1 1.73817 12.7849 12.878
635 1 2.39048 12.9634 2.31244
636 1 2.80708 12.9934 12.8913
637 1 3.36828 12.4633 1.43408
638 1 3.85944 13.1645 0.00655457
639 1 3.4114 13.1033 2.53267
640 1 3.89866 12.5997 0.722876
641 1 0.380195 9.29859 3.28265
642 1 0.471535 8.87282 4.20507
643 1 1.54826 9.37133 3.21296
644 1 1.49 8.92489 4.06974
645 1 2.69415 8.58463 3.40272
646 1 2.63603 9.21333 4.10147
647 1 3.29771 9.65374 2.46513
648 1 4.02026 9.82502 3.19175
649 1 0.55835 10.5478 3.32426
650 1 0.727211 10.0087 3.99065
651 1 1.75298 10.7067 3.28845
652 1 1.77001 9.9624 3.92952
653 1 2.86916 10.8878 3.08549
654 1 2.80403 10.2718 4.02442
655 1 3.9599 10.9717 3.2126
656 1 3.91199 10.3932 4.07813
657 1 0.62486 11.6371 3.26964
658 1 0.551439 11.1874 4.17729
659 1 1.75445 11.8463 3.18077
660 1 1.69296 11.2931 4.04422
661 1 2.89633 11.9141 3.15388
662 1 2.77632 11.3293 3.99446
663 1 4.04287 12.0082 3.18544
664 1 3.88693 11.5271 4.10225
665 1 0.67411 12.7992 3.17204
666 1 0.636498 12.3324 3.97887
667 1 1.71988 12.8976 3.21519
668 1 1.80468 12.3039 4.08548
669 1 2.76889 12.9904 3.23301
670 1 2.84211 12.4291 4.04618
671 1 3.96082 13.2748 3.43988
672 1 3.89931 12.6315 3.94974
673 1 4.46238 9.31684 1.64668
674 1 5.02438 9.74415 12.896
675 1 4.38088 9.8897 2.34571
676 1 4.92268 9.24626 0.814016
677 1 5.58801 9.41646 1.56731
678 1 6.16621 10.9682 0.0417667
679 1 5.52692 9.90881 2.46567
680 1 6.10386 9.1495 0.752762
681 1 6.66637 9.14676 1.62008
682 1 7.34952 9.68199 12.8941
683 1 6.74876 9.68606 2.34677
684 1 7.30089 9.08609 0.778089
685 1 8.40689 8.90273 0.977521
686 1 8.31992 9.44785 0.18819
687 1 7.89246 10.2073 1.62926
688 1 8.42898 8.5029 12.8786
689 1 4.517 10.4455 1.57622
690 1 4.97319 10.9476 12.9366
691 1 4.40339 10.9855 2.44415
692 1 4.98456 10.3326 0.735995
693 1 5.54822 10.3972 1.62114
694 1 5.59163 11.0494 12.2946
695 1 5.61841 11.0021 2.50047
696 1 6.13924 9.72929 0.0623009
697 1 6.15898 10.3837 0.717139
698 1 7.30698 10.7442 12.9401
699 1 6.76108 10.6751 2.43713
700 1 6.60839 10.2431 1.55227
701 1 7.34525 10.1966 0.90126
702 1 8.36299 10.5892 0.0941731
703 1 7.71202 10.5721 2.46022
704 1 8.52783 10.0816 0.803277
705 1 4.56539 11.5771 1.68274
706 1 5.15604 12.0967 0.0923979
707 1 4.56644 12.2191 2.55095
708 1 5.1086 11.4815 0.86227
709 1 5.5998 11.4455 1.61895
710 1 6.14786 12.0859 0.080372
711 1 5.62174 12.1531 2.40262
712 1 6.22335 11.6054 0.876322
713 1 6.76131 11.4441 1.65122
714 1 7.39535 11.8687 12.9095
715 1 6.66827 11.9538 2.50238
716 1 7.29937 11.283 0.81021
717 1 7.87392 11.2822 1.58334
718 1 8.45594 11.6518 12.854
719 1 7.84597 11.6784 2.43055
720 1 8.38767 11.2184 0.812241
721 1 4.50139 12.606 1.56245
722 1 4.95807 13.111 12.826
723 1 4.4638 13.1321 2.39475
724 1 5.05353 12.6561 0.799941
725 1 5.58292 12.646 1.69894
726 1 6.17018 13.2244 12.9383
727 1 5.69917 13.2653 2.54376
728 1 6.12634 12.6545 0.987805
729 1 6.74971 12.535 1.80833
730 1 7.3564 12.8944 0.0737976
731 1 6.83185 13.2148 2.39356
732 1 7.17541 12.4742 0.916599
733 1 7.89606 12.4188 1.52682
734 1 8.32613 12.9348 0.121469
735 1 7.85986 12.8252 2.37942
736 1 8.44309 12.2926 0.8668
737 1 5.11271 9.89403 3.16715
738 1 5.07757 9.35817 4.0377
739 1 6.26746 9.77356 3.20271
740 1 6.11929 9.36807 4.10233
741 1 7.87002 9.39608 2.45289
742 1 7.30605 8.97317 4.10659
743 1 8.2307 9.56243 3.29593
744 1 8.94544 8.77153 4.80544
745 1 5.0464 10.972 3.22151
746 1 5.00704 10.4387 4.07972
747 1 6.33711 11.0289 3.22844
748 1 6.13989 10.4142 3.92877
749 1 7.41571 10.9351 3.32693
750 1 7.35136 10.2458 4.04273
751 1 8.41157 10.6275 3.18202
752 1 8.51986 9.96428 4.1538
753 1 5.25459 12.2019 3.31588
754 1 5.06798 11.4428 4.02173
755 1 6.29869 12.2828 3.39576
756 1 6.21967 11.5733 4.06996
757 1 7.34132 11.8917 3.13086
758 1 7.33837 11.3581 4.12323
759 1 8.50649 11.6211 3.35428
760 1 8.53245 10.9943 4.09563
761 1 4.99544 13.2897 3.25179
762 1 5.02864 12.7177 3.98822
763 1 6.21083 13.2594 3.19865
764 1 6.29484 12.791 4.22722
765 1 7.29324 12.9829 3.29852
766 1 7.41332 12.3738 4.01458
767 1 8.37073 12.7842 3.21588
768 1 8.49984 12.2839 3.96107
769 1 9.03508 8.88805 1.65709
770 1 9.56761 8.68908 0.850344
771 1 8.92011 9.40923 2.54597
772 1 9.50597 9.51636 0.00267956
773 1 10.1493 8.73075 1.61162
774 1 9.96072 9.23749 12.1584
775 1 10.0797 9.21544 2.48093
776 1 10.6703 8.77435 0.679238
777 1 11.1778 8.74635 1.60522
778 1 11.7588 9.25329 12.9374
779 1 11.2399 9.14488 2.54643
780 1 11.8579 8.65007 0.890567
781 1 12.394 8.70006 1.52486
782 1 12.8476 9.34373 0.045406
783 1 12.1895 9.3359 2.42012
784 1 12.9749 8.7027 0.754745
785 1 8.89333 10.0621 1.65006
786 1 9.6146 10.5663 12.9432
787 1 9.03494 10.5097 2.50115
788 1 9.57519 9.74071 0.845183
789 1 10.0506 9.82782 1.71719
790 1 10.6561 9.80814 0.763211
791 1 10.148 10.4617 2.27112
792 1 10.6043 9.25853 12.767
793 1 11.1889 9.71617 1.54466
794 1 11.7095 10.3682 12.919
795 1 11.2737 10.2379 2.50926
796 1 11.8369 9.77527 0.720775
797 1 12.277 9.83939 1.62678
798 1 12.903 10.5428 12.9316
799 1 12.2976 10.4681 2.44968
800 1 13.0171 9.96231 0.790156
801 1 8.97132 11.2396 1.66929
802 1 9.51672 11.4691 0.0536771
803 1 8.88865 11.5622 2.46526
804 1 9.46207 10.878 0.893764
805 1 10.1072 11.0206 1.48715
806 1 10.6589 11.4887 12.9111
807 1 9.94137 11.412 2.50613
808 1 10.6917 10.8498 0.681258
809 1 11.1318 10.7709 1.6683
810 1 11.893 11.4894 12.9083
811 1 11.2012 11.3125 2.4605
812 1 11.7629 10.8877 0.77096
813 1 12.2145 10.9349 1.54318
814 1 12.8522 11.5431 12.8509
815 1 12.3378 11.5368 2.4581
816 1 12.99 11.0578 0.921741
817 1 8.99594 12.3271 1.55042
818 1 9.45945 12.7323 0.0191783
819 1 9.00037 12.6675 2.46863
820 1 9.54853 12.1427 0.760365
821 1 10.0984 12.0308 1.66288
822 1 10.5886 12.5739 0.015757
823 1 10.1466 12.5794 2.56131
824 1 10.6229 11.9709 0.842376
825 1 11.2409 11.9129 1.70013
826 1 13.4325 12.692 12.117
827 1 11.1414 12.5134 2.41328
828 1 11.6446 11.9615 0.865924
829 1 12.3392 12.041 1.62965
830 1 11.8521 12.5076 0.099953
831 1 12.2682 12.5558 2.4862
832 1 12.8608 12.1858 0.814296
833 1 9.52689 9.22608 3.22143
834 1 10.1561 8.59333 4.92794
835 1 10.618 9.15172 3.31096
836 1 10.6653 8.58281 4.05962
837 1 11.7298 9.10751 3.37109
838 1 11.8157 7.9159 3.26708
839 1 12.7598 9.27787 3.18358
840 1 12.8999 8.78838 4.0659
841 1 9.65053 10.3677 3.17766
842 1 9.54656 9.82136 4.04856
843 1 10.6853 10.2817 3.28645
844 1 10.6199 9.80463 4.12111
845 1 11.8296 10.405 3.27118
846 1 11.8942 9.84047 3.91139
847 1 12.938 10.2868 3.21794
848 1 12.9373 9.80245 4.14644
849 1 9.62147 11.6268 3.31628
850 1 9.55912 10.9367 3.86146
851 1 10.6556 11.4169 3.22674
852 1 10.6256 10.8672 4.05278
853 1 11.7391 11.5845 3.29207
854 1 11.7189 10.9677 4.02925
855 1 12.8196 11.4381 3.24019
856 1 12.8422 10.9042 3.97255
857 1 9.54936 12.7271 3.20957
858 1 9.57306 12.2329 4.12244
859 1 10.7134 12.4989 3.31184
860 1 10.6516 11.9633 4.08932
861 1 11.7743 12.5711 3.30618
862 1 11.9123 12.0891 4.21307
863 1 12.891 12.7575 3.27333
864 1 12.9825 12.1058 3.9896
865 1 0.0302668 13.2123 4.82685
866 1 0.0615779 0.33957 5.66015
867 1 1.16327 13.3851 4.91585
868 1 1.09747 0.517934 5.5944
869 1 2.25208 0.104632 4.83145
870 1 2.30985 0.588991 5.75975
871 1 3.34869 0.212614 4.82167
872 1 3.46037 0.614152 5.66276
873 1 13.3176 0.832113 4.79804
874 1 0.0157588 1.424 5.69915
875 1 1.01872 1.073 4.84729
876 1 1.3051 1.67119 5.54112
877 1 2.21578 1.15272 4.76805
878 1 2.2629 1.65597 5.60855
879 1 3.3164 1.23078 4.94915
880 1 3.29556 1.90161 5.62503
881 1 0.0717092 1.9692 4.98296
882 1 0.0169561 2.60755 5.58848
883 1 1.13913 2.24562 4.77266
884 1 1.07666 2.72336 5.60696
885 1 2.40656 2.38909 4.79852
886 1 2.26511 2.71849 5.73802
887 1 3.44149 3.04511 5.84836
888 1 4.11326 3.17676 6.56508
889 1 13.3527 3.17292 4.85997
890 1 0.0152088 3.72966 5.65632
891 1 1.12755 3.34185 4.839
892 1 1.11933 3.81868 5.68898
893 1 2.21512 3.51302 4.97975
894 1 2.23174 4.02243 5.72594
895 1 3.28116 3.72033 4.89913
896 1 3.41565 4.09457 5.75338
897 1 13.4135 13.3372 8.05323
898 1 0.586365 0.446461 6.60367
899 1 0.559837 13.216 7.35387
900 1 1.24468 13.4114 7.98934
901 1 1.61062 0.5736 6.33203
902 1 1.89029 0.113397 7.23492
903 1 2.27846 0.231996 8.22614
904 1 2.8696 0.799334 6.49992
905 1 2.90559 0.237414 7.35279
906 1 3.52106 0.210558 8.08185
907 1 3.92312 0.899404 6.49409
908 1 3.99607 0.379699 7.19124
909 1 0.0684434 0.790361 8.13269
910 1 0.704481 1.49616 6.36646
911 1 0.645896 1.0374 7.28534
912 1 1.27065 0.973434 8.0244
913 1 1.74186 1.74893 6.50911
914 1 1.80651 1.12125 7.10487
915 1 2.26317 1.35424 8.17735
916 1 2.87357 1.81735 6.49521
917 1 2.86529 1.36521 7.31147
918 1 3.52978 0.860464 8.95143
919 1 3.83565 2.53734 7.18599
920 1 4.00831 1.41309 7.27383
921 1 13.4201 1.93229 8.10306
922 1 0.615279 2.46127 6.44988
923 1 0.594186 2.02455 7.42997
924 1 1.19149 2.20315 8.14251
925 1 1.59769 2.88772 6.35367
926 1 1.80987 2.32254 7.20069
927 1 2.26669 2.36894 8.1763
928 1 2.8217 3.05105 6.33148
929 1 2.78182 2.54673 7.18859
930 1 3.48589 1.95346 8.94135
931 1 3.44675 3.54992 8.26733
932 1 3.29705 2.42398 8.15714
933 1 0.00630262 3.06965 8.18732
934 1 0.493546 3.64824 6.51861
935 1 0.587062 3.15885 7.30766
936 1 1.09311 3.29244 8.10812
937 1 1.57455 3.96795 6.48557
938 1 1.71342 3.36502 7.39741
939 1 2.32994 3.57767 8.14611
940 1 2.65731 4.11761 6.50209
941 1 2.79702 3.57292 7.31283
942 1 3.2985 4.28347 8.80995
943 1 4.46632 4.28804 5.61762
944 1 3.91762 1.95783 6.37845
945 1 4.58359 0.289712 4.95022
946 1 4.51922 0.933432 5.72055
947 1 5.63309 0.52333 4.98028
948 1 5.73159 1.09441 5.74378
949 1 6.80746 0.328713 4.77137
950 1 6.81305 0.810094 5.80748
951 1 7.85113 0.0941614 4.89384
952 1 8.3589 0.604005 6.56758
953 1 3.84561 1.50874 4.15956
954 1 3.90668 3.6948 3.92222
955 1 5.4567 1.47055 4.77855
956 1 5.79772 2.07812 5.69911
957 1 6.67668 1.32813 4.92419
958 1 6.65976 3.18797 5.53405
959 1 7.92415 1.18747 4.87666
960 1 7.93956 1.74782 5.66483
961 1 4.56163 2.13836 5.8059
962 1 4.97417 3.74418 7.2845
963 1 5.6594 2.44735 4.71295
964 1 5.09115 3.08174 6.62696
965 1 6.83434 2.57457 4.8515
966 1 6.76684 4.14761 5.7661
967 1 7.96468 2.27414 4.82976
968 1 7.77075 2.8589 5.75909
969 1 5.55604 3.76876 4.97086
970 1 3.72289 4.30157 6.61117
971 1 4.84852 4.88066 3.88521
972 1 5.48457 4.91413 4.732
973 1 6.63327 3.72736 4.74489
974 1 6.72247 4.68125 4.95638
975 1 7.80274 3.96003 5.63922
976 1 8.3156 3.94866 6.43369
977 1 4.51899 0.369738 8.19575
978 1 5.11849 0.786336 6.41395
979 1 5.09825 0.410925 7.29257
980 1 5.76541 0.353404 7.93173
981 1 6.22488 0.817044 6.47913
982 1 6.37424 0.346291 7.32237
983 1 6.63913 13.1957 8.90248
984 1 7.88138 0.669908 5.64411
985 1 6.9712 0.264387 8.27104
986 1 7.9265 13.408 8.1212
987 1 8.44747 13.3704 7.26233
988 1 8.52822 12.8708 6.42964
989 1 4.59021 1.42127 8.15256
990 1 5.21246 2.07535 6.47499
991 1 5.1057 1.5145 7.29938
992 1 5.70283 1.52547 8.31621
993 1 6.44706 1.97061 6.54871