data.lammps (converted from cfg to data.lammps)
    
2298  atoms
1  atom types
0.0   13.4375  xlo xhi
0.0   13.4375  ylo yhi
0.0   12.952  zlo zhi
0.0  0.0 0.0 xy xz yz
    
    
    
Atoms
  
1 1 13.4093 13.1283 1.74812
2 1 0.202014 0.268593 0.185416
3 1 0.161743 0.211173 2.54441
4 1 0.40614 13.1092 0.84894
5 1 1.0229 13.0441 1.47298
6 1 2.13512 0.297207 12.0962
7 1 1.18469 0.194824 2.33386
8 1 1.72537 13.1037 0.972263
9 1 2.36508 13.2404 1.6696
10 1 2.80302 0.994431 0.776904
11 1 2.3377 0.454198 2.4417
12 1 2.81426 13.2996 0.759713
13 1 3.42867 13.3678 1.59386
14 1 3.90994 0.613887 12.942
15 1 3.36656 0.519651 2.40482
16 1 3.97419 13.3089 0.758037
17 1 13.3845 0.70339 1.68583
18 1 0.631513 1.33489 0.0369534
19 1 0.00667162 1.37565 2.29513
20 1 0.633841 0.786231 0.964678
21 1 1.22609 0.762597 1.716
22 1 1.69283 1.45895 0.0239093
23 1 1.05717 1.47612 2.43583
24 1 1.66575 0.802259 0.816985
25 1 2.3039 0.98178 1.61616
26 1 2.77502 1.49803 12.9308
27 1 2.23792 1.53064 2.41469
28 1 3.38957 0.948963 1.63134
29 1 3.88213 1.06876 0.738259
30 1 3.95017 1.73963 12.9337
31 1 4.99871 1.69232 3.4922
32 1 5.02162 1.15444 0.916377
33 1 13.3638 1.86194 1.56376
34 1 0.487022 2.33787 0.072415
35 1 13.3137 2.47382 2.41965
36 1 0.535154 1.7472 0.930706
37 1 1.11118 2.03405 1.6399
38 1 1.72744 2.62377 0.116126
39 1 1.18651 2.57295 2.35555
40 1 1.71758 1.9225 0.81137
41 1 2.22354 2.00858 1.58785
42 1 2.72216 2.75244 0.00114733
43 1 2.23955 2.7705 2.41385
44 1 2.83836 2.00763 0.631628
45 1 3.22317 2.15582 1.55859
46 1 3.8574 2.76365 0.0193998
47 1 2.83981 2.53597 3.2171
48 1 3.92016 2.22272 0.8997
49 1 0.0513104 2.93996 1.65407
50 1 0.562553 3.55098 12.913
51 1 0.0197758 3.68409 2.36829
52 1 0.527345 2.93239 0.750985
53 1 1.12529 3.15573 1.59811
54 1 1.75177 3.82977 0.0564052
55 1 1.16752 3.59823 2.54024
56 1 1.67224 3.19487 0.829016
57 1 2.29276 3.19537 1.60707
58 1 2.81495 3.66864 0.0616592
59 1 2.28518 3.81569 2.51831
60 1 2.95982 3.18666 0.954117
61 1 3.47647 3.31248 1.77913
62 1 3.86622 3.88548 12.8972
63 1 3.33857 4.00873 2.42904
64 1 3.93707 3.34673 0.830266
65 1 0.771893 0.321839 3.26389
66 1 0.479934 13.086 4.15606
67 1 1.73244 0.376402 3.21418
68 1 1.69415 13.131 4.00083
69 1 2.79853 0.293948 3.31249
70 1 2.85035 13.0936 4.11633
71 1 3.94806 0.58698 3.10809
72 1 3.86227 0.155391 4.07378
73 1 0.491271 1.32606 3.30604
74 1 0.700923 0.743672 4.07465
75 1 1.73697 1.44747 3.19206
76 1 1.78693 0.93201 4.14669
77 1 2.83694 1.50182 3.13637
78 1 2.84113 0.978675 3.92615
79 1 3.81681 2.28368 4.15498
80 1 4.43389 1.779 2.4801
81 1 0.543641 2.55005 3.12117
82 1 0.578867 1.94717 3.91184
83 1 1.75655 2.52546 3.25248
84 1 1.63424 1.96232 3.97595
85 1 2.83616 2.03782 4.10414
86 1 3.3051 2.19885 4.96686
87 1 3.32997 2.74766 2.50813
88 1 4.38189 2.36745 4.88994
89 1 0.564091 3.58444 3.13736
90 1 0.539022 3.09697 4.12407
91 1 1.66716 3.82181 3.33408
92 1 1.57156 3.07648 4.01057
93 1 2.78088 3.66571 3.38473
94 1 2.73837 2.9917 4.11776
95 1 3.81636 3.92771 3.17856
96 1 3.94928 2.87169 3.25074
97 1 4.48984 0.0101577 1.55193
98 1 5.12611 0.844458 12.8955
99 1 4.57919 0.677839 2.5539
100 1 5.02761 0.164869 0.716011
101 1 5.65391 0.311093 1.54074
102 1 6.24787 0.956458 12.9058
103 1 5.67654 0.860477 2.52765
104 1 6.16359 0.409899 0.845811
105 1 6.81385 0.359399 1.69955
106 1 7.34096 0.838117 0.069648
107 1 6.88923 0.8923 2.48178
108 1 7.39128 0.375674 0.916099
109 1 8.13201 0.19433 1.46788
110 1 7.91314 0.875463 12.3143
111 1 7.87726 0.797287 2.25771
112 1 8.36886 0.567693 0.377452
113 1 4.45663 1.10263 1.66889
114 1 5.02858 1.82817 0.0638663
115 1 3.33059 1.69732 2.25593
116 1 5.52941 1.41028 1.72588
117 1 6.14095 1.49297 0.706082
118 1 6.16795 2.60518 0.872769
119 1 5.60298 1.95387 2.52196
120 1 6.05269 2.18902 0.00216897
121 1 6.56071 1.36693 1.6169
122 1 7.26058 2.00907 0.0101945
123 1 6.63154 1.88742 2.55439
124 1 7.20128 1.52107 0.882328
125 1 7.77806 1.49124 1.58408
126 1 8.39552 1.89305 0.124503
127 1 7.75732 1.96056 2.49423
128 1 8.35047 1.30692 0.784863
129 1 4.38179 2.28639 1.661
130 1 5.01707 2.98059 12.8781
131 1 4.52884 2.82217 2.44826
132 1 5.01842 2.32965 0.871045
133 1 5.59443 2.4892 1.61873
134 1 6.18423 3.16874 12.9469
135 1 5.59715 3.02248 2.42753
136 1 6.74264 2.55194 1.738
137 1 7.78749 3.08873 2.51675
138 1 7.74973 3.03321 12.2643
139 1 6.6807 3.1313 2.47405
140 1 7.21567 2.56831 0.74792
141 1 7.70895 2.57205 1.64988
142 1 8.41046 2.98608 12.947
143 1 7.87057 3.49821 1.69955
144 1 8.3134 2.64785 0.845627
145 1 4.51391 3.40466 1.75911
146 1 5.09444 4.11146 0.11467
147 1 4.54873 3.98697 2.52235
148 1 4.95347 3.42938 0.776106
149 1 5.59985 3.67025 1.63575
150 1 6.13121 4.25203 12.9102
151 1 5.71389 4.12476 2.43512
152 1 6.05659 3.7561 0.909473
153 1 7.2587 4.34778 0.0584322
154 1 6.73817 4.35281 12.1581
155 1 6.75621 3.74096 1.62054
156 1 7.27321 3.73323 0.890099
157 1 7.86424 4.20587 2.45951
158 1 8.43824 4.16253 12.8524
159 1 8.39537 4.11053 3.14528
160 1 8.31828 3.69824 0.647173
161 1 5.07069 0.852335 3.56904
162 1 4.95109 0.119459 3.99853
163 1 6.21546 0.822966 3.27568
164 1 6.19437 0.305719 4.0977
165 1 7.30968 0.835904 3.36582
166 1 7.23463 0.241386 4.07871
167 1 8.31495 0.9818 3.06543
168 1 8.32499 0.396511 3.9412
169 1 4.56252 1.21214 4.74735
170 1 4.03941 1.13839 4.01328
171 1 6.13132 2.07124 3.30926
172 1 6.09516 1.4982 4.01789
173 1 7.29318 2.02488 3.26389
174 1 7.28669 1.49565 4.08897
175 1 8.43117 1.87655 3.2447
176 1 8.42636 1.37056 4.17289
177 1 4.99755 2.83081 3.3087
178 1 5.00087 2.31333 4.14647
179 1 5.94409 3.2066 3.38093
180 1 6.21612 2.5766 4.14709
181 1 7.06345 3.12989 3.27209
182 1 7.40662 2.78238 4.05223
183 1 8.41493 3.08583 3.23874
184 1 8.38677 2.40889 4.02982
185 1 4.93469 3.52372 4.06311
186 1 4.38506 3.51213 4.88891
187 1 6.74352 4.33728 2.44128
188 1 6.11366 3.65935 4.126
189 1 7.18941 4.29136 3.32027
190 1 7.18773 3.84706 4.00765
191 1 8.4622 5.28908 3.22037
192 1 7.76845 3.73061 4.89808
193 1 9.08794 0.182859 1.61329
194 1 9.39703 0.645873 0.062332
195 1 8.9884 0.7255 2.60809
196 1 9.47411 0.0575841 0.754148
197 1 10.1971 0.00480542 1.54842
198 1 10.5548 0.490527 12.8951
199 1 10.2208 0.634257 2.39078
200 1 10.6041 13.2928 0.761627
201 1 11.249 13.2794 1.58917
202 1 11.963 0.4562 0.0457435
203 1 11.3616 0.403 2.45573
204 1 11.7213 13.3212 0.933921
205 1 12.4595 13.1379 1.55297
206 1 12.778 13.104 0.694204
207 1 12.4275 0.261994 2.55293
208 1 12.9168 12.6462 12.8603
209 1 9.01687 1.16685 1.58908
210 1 9.53301 2.82974 12.8611
211 1 8.90201 1.85861 2.2427
212 1 9.47364 1.22921 0.801678
213 1 10.0778 1.16808 1.70775
214 1 10.5231 2.22139 0.782057
215 1 10.065 1.83314 2.44593
216 1 10.4841 0.936352 0.820957
217 1 11.2063 0.960852 1.79728
218 1 11.8159 1.43568 0.100331
219 1 11.1083 1.64994 2.51599
220 1 11.4913 0.935227 0.892403
221 1 12.3066 0.814708 1.51766
222 1 12.9416 1.25954 12.8969
223 1 12.3021 1.41989 2.40072
224 1 12.8262 0.780782 0.808852
225 1 8.87599 2.44217 1.57433
226 1 8.89827 2.89437 12.0797
227 1 8.92899 3.02074 2.3089
228 1 9.45741 2.28792 0.730687
229 1 10.0852 2.26856 1.54399
230 1 10.1296 2.72523 12.145
231 1 10.0089 2.84493 2.40148
232 1 10.5252 3.35756 0.855597
233 1 11.1558 2.10383 1.58231
234 1 11.9888 2.568 12.8915
235 1 11.1043 2.64677 2.41902
236 1 11.6856 1.97308 0.772126
237 1 12.2314 1.93423 1.70746
238 1 12.9907 2.34879 0.00886251
239 1 12.1765 2.66218 2.43507
240 1 12.761 1.79858 0.83295
241 1 8.88681 3.61528 1.58245
242 1 9.37783 3.93531 0.0120105
243 1 9.03894 4.15428 2.50183
244 1 9.43046 3.40579 0.799922
245 1 10.0227 3.40839 1.73982
246 1 10.5628 3.90367 0.015199
247 1 10.0508 3.97995 2.50549
248 1 10.7215 2.82971 0.106922
249 1 11.2005 3.16996 1.5693
250 1 11.7481 3.77447 0.0130893
251 1 11.1666 3.64097 2.50984
252 1 11.687 3.09386 0.756964
253 1 12.3491 3.00921 1.50129
254 1 12.9541 3.6306 0.0362789
255 1 12.3923 3.63878 2.40256
256 1 12.8944 3.02406 0.825207
257 1 9.623 0.876873 3.14757
258 1 9.33858 0.257858 3.97319
259 1 10.5884 0.350212 3.29719
260 1 10.4911 13.3951 4.09325
261 1 11.6143 0.422209 3.25867
262 1 11.8627 13.2051 3.89449
263 1 13.0382 0.338487 3.25493
264 1 12.94 13.178 4.04413
265 1 9.45605 1.94101 3.12085
266 1 9.52119 1.28302 3.98795
267 1 10.6674 1.46353 3.31474
268 1 10.6642 0.985071 4.13669
269 1 11.85 1.568 3.22948
270 1 11.9413 0.849343 4.01199
271 1 12.8559 1.53409 3.18373
272 1 12.9211 0.851029 4.01117
273 1 9.52631 2.88244 3.18915
274 1 9.53313 2.34843 4.10177
275 1 10.6317 2.70358 3.31312
276 1 10.6487 2.14546 3.98121
277 1 11.7617 2.64197 3.38958
278 1 11.7973 1.9615 4.11986
279 1 12.7414 2.52476 3.22353
280 1 12.9903 2.01261 4.05702
281 1 9.45519 3.87525 3.3658
282 1 9.42498 3.37128 4.10195
283 1 10.6147 3.88516 3.31128
284 1 10.613 3.30575 4.09054
285 1 11.762 3.75045 3.227
286 1 11.6875 3.21885 4.03112
287 1 12.8778 3.67688 3.20499
288 1 12.9786 3.08173 3.91656
289 1 0.164728 4.11486 1.52844
290 1 0.441007 4.76479 0.0685637
291 1 13.4024 4.70944 2.33671
292 1 0.603639 4.08661 0.766058
293 1 1.29631 4.23684 1.77261
294 1 1.60135 4.8572 0.0204712
295 1 0.872709 4.71543 2.45965
296 1 1.58886 4.37268 0.880495
297 1 2.30351 4.2432 1.60969
298 1 2.7884 4.88907 0.032681
299 1 2.05075 4.83106 2.56209
300 1 2.76024 4.27342 0.713875
301 1 3.32463 4.41531 1.52388
302 1 3.78442 5.01922 0.000603142
303 1 3.2416 4.99853 2.57569
304 1 4.01307 4.4251 0.708934
305 1 0.0469442 5.29397 1.36785
306 1 0.495208 5.90613 12.9108
307 1 13.3011 5.63639 2.41389
308 1 0.651552 5.29193 0.802698
309 1 1.22902 5.36898 1.71973
310 1 1.52384 5.95307 0.0361194
311 1 0.993695 5.86869 2.44696
312 1 1.78267 5.36897 0.844815
313 1 2.27028 5.30882 1.77521
314 1 2.82803 6.13627 12.8882
315 1 2.20282 6.098 2.37369
316 1 2.71044 5.602 0.710799
317 1 3.27503 5.40212 1.51946
318 1 3.91446 6.10046 0.0580693
319 1 3.29051 6.0591 2.34882
320 1 3.90842 5.53449 0.837177
321 1 13.3694 6.27406 1.65903
322 1 0.625899 7.07159 12.8706
323 1 0.00856182 6.91586 2.41921
324 1 0.481889 6.43551 0.813836
325 1 1.02276 6.38578 1.60144
326 1 1.6594 6.9494 0.157187
327 1 1.06682 6.96635 2.43643
328 1 1.68332 6.4958 0.889222
329 1 2.24011 6.56005 1.571
330 1 2.72463 7.3005 0.00696302
331 1 2.18538 7.09703 2.48711
332 1 2.86301 6.61086 0.879474
333 1 3.49783 6.63825 1.603
334 1 3.79814 7.1742 0.109566
335 1 3.21628 7.20886 2.39163
336 1 4.03555 6.70144 0.885466
337 1 0.0444953 7.42489 1.63808
338 1 0.642472 8.02924 0.0398005
339 1 13.3874 8.21656 2.30671
340 1 0.587356 7.50208 0.846488
341 1 1.12467 7.58114 1.5979
342 1 1.78739 8.18986 12.8551
343 1 0.972573 8.11926 2.50161
344 1 1.76566 7.7265 0.712697
345 1 2.13783 7.62972 1.65896
346 1 2.9133 8.19726 12.7715
347 1 2.15404 8.20224 2.43501
348 1 2.74638 7.63665 0.955803
349 1 3.38015 7.82659 1.73726
350 1 4.01843 8.3642 0.0940455
351 1 2.87877 9.46146 3.34307
352 1 3.91612 7.83351 0.772381
353 1 0.524081 4.74619 3.43773
354 1 0.520297 4.0997 4.15284
355 1 1.57494 4.84129 3.26438
356 1 1.64159 4.18062 4.15178
357 1 2.73781 4.91928 3.29337
358 1 2.83305 4.30512 4.02771
359 1 3.92484 5.10754 3.34226
360 1 4.01033 4.44706 4.00205
361 1 0.554605 5.92166 3.28311
362 1 0.773114 5.40732 4.09282
363 1 1.77379 5.90687 3.10136
364 1 1.82359 5.3005 4.13428
365 1 2.78653 6.039 3.23471
366 1 2.77455 5.49102 4.08467
367 1 3.80523 6.28914 3.18885
368 1 3.97614 5.73803 3.97227
369 1 0.652485 6.99008 3.20048
370 1 0.544599 6.43218 4.06781
371 1 1.73079 7.03335 3.41372
372 1 1.63294 6.35541 4.00105
373 1 2.72859 7.10601 3.36588
374 1 2.80039 6.52854 4.20496
375 1 5.12577 7.63607 3.06925
376 1 3.43375 6.77465 4.78111
377 1 0.409412 8.12746 3.17008
378 1 0.486373 7.59555 3.9461
379 1 1.68232 8.19415 3.28788
380 1 1.46711 7.70569 4.02863
381 1 4.01128 8.46509 3.22702
382 1 2.74843 7.64158 4.18794
383 1 3.80694 7.32138 3.20562
384 1 4.06965 7.78238 3.9688
385 1 4.44263 4.47306 1.66872
386 1 4.98539 5.2935 0.102461
387 1 4.32091 5.10147 2.37154
388 1 4.96799 4.64933 0.912485
389 1 5.49508 5.26992 2.52956
390 1 6.18015 4.86717 0.758206
391 1 6.16068 5.40232 3.27441
392 1 5.58233 4.82576 1.61177
393 1 6.67211 4.84317 1.64882
394 1 6.54413 5.44309 12.1276
395 1 6.65308 5.34454 2.5406
396 1 7.241 4.89579 0.759736
397 1 7.83426 4.73176 1.58136
398 1 8.26057 5.19932 12.8587
399 1 7.72648 5.33709 2.47369
400 1 8.39755 4.81607 0.792809
401 1 4.45121 5.71764 1.6595
402 1 5.04738 6.35528 12.852
403 1 4.4118 6.15971 2.42162
404 1 4.95025 5.85336 0.900959
405 1 5.61181 5.80563 1.68335
406 1 6.17148 6.53009 12.9366
407 1 6.12556 6.48471 3.2547
408 1 6.09344 5.90919 0.755225
409 1 6.67384 5.92005 1.53416
410 1 7.24846 5.96292 0.754172
411 1 6.71432 6.37728 2.4084
412 1 7.28767 5.41425 12.8813
413 1 7.81521 5.8253 1.67806
414 1 8.42457 6.35697 12.7572
415 1 7.78535 6.48698 2.32702
416 1 8.32053 5.82248 0.674677
417 1 4.56737 6.87464 1.69187
418 1 4.98244 7.30699 12.8348
419 1 4.44858 7.36044 2.49722
420 1 5.07479 6.90752 0.715014
421 1 5.66641 6.37722 2.4932
422 1 6.28467 7.55252 12.8908
423 1 5.59477 6.89166 1.60545
424 1 6.12618 7.06079 0.754204
425 1 6.72005 7.02126 1.62443
426 1 7.3388 7.58642 0.0901979
427 1 6.84461 7.53691 2.41437
428 1 7.30812 7.12507 0.89155
429 1 7.84176 7.07875 1.67898
430 1 8.40901 6.81773 0.802608
431 1 7.94891 7.70158 2.43123
432 1 9.02886 6.84586 1.55108
433 1 4.4224 7.89933 1.69425
434 1 5.03142 8.59114 12.9437
435 1 4.55068 8.53816 2.22295
436 1 5.05367 7.93811 0.814343
437 1 5.66184 7.4734 2.36981
438 1 6.10746 8.66666 12.8912
439 1 5.67174 8.01935 1.61751
440 1 6.13593 8.06911 0.782008
441 1 6.68701 8.20599 1.76816
442 1 7.31429 8.63562 12.8678
443 1 6.79408 8.70874 2.53468
444 1 7.27782 8.20901 0.798897
445 1 7.85493 8.26668 1.58861
446 1 8.32589 8.1197 0.66852
447 1 7.7007 9.20459 1.53056
448 1 8.45188 7.39671 0.0826844
449 1 5.00343 5.26598 3.24265
450 1 5.01017 4.05585 3.21693
451 1 6.2164 5.86498 4.06225
452 1 6.15662 4.31015 3.31084
453 1 7.31669 5.49662 3.24317
454 1 7.26036 5.00751 3.99235
455 1 8.397 5.85836 3.95357
456 1 8.4164 3.47863 4.09887
457 1 5.10051 5.85956 4.00929
458 1 4.59236 5.22046 5.76501
459 1 6.20998 6.99613 4.09477
460 1 6.27237 7.54313 3.20272
461 1 7.27338 6.63259 3.27449
462 1 8.40454 6.47882 6.50635
463 1 8.34324 6.4104 3.16803
464 1 7.8616 6.34867 5.63773
465 1 5.0607 8.01711 4.04193
466 1 5.04303 6.39413 3.1961
467 1 6.14471 8.61329 3.17622
468 1 5.04343 6.94547 3.91952
469 1 6.25831 8.06254 4.01858
470 1 7.37791 7.6948 3.24117
471 1 8.51794 7.51764 3.22611
472 1 8.39042 6.88245 4.02862
473 1 5.01363 8.64858 3.21796
474 1 4.5691 8.06134 4.83224
475 1 5.65066 8.16669 4.78807
476 1 6.84259 8.23824 4.8612
477 1 7.43234 8.81212 3.22239
478 1 6.69216 9.38263 4.8645
479 1 7.85975 8.83301 2.38176
480 1 8.45876 8.02419 4.05386
481 1 8.90367 4.60737 1.5807
482 1 9.44566 5.03495 0.0867674
483 1 8.89514 5.33226 2.29469
484 1 9.66962 4.48244 0.869922
485 1 10.0895 4.50015 1.5939
486 1 10.6023 5.03263 12.8449
487 1 9.93073 5.0958 2.47347
488 1 10.6901 4.5071 0.7259
489 1 11.2046 4.2788 1.7096
490 1 11.6842 4.9966 12.8238
491 1 11.0794 4.82594 2.40284
492 1 11.7197 4.2328 0.743401
493 1 12.2673 4.18625 1.6066
494 1 12.8099 4.68261 0.0534091
495 1 12.3812 4.72828 2.45509
496 1 12.8916 4.09415 0.980534
497 1 8.94925 5.73542 1.49734
498 1 9.56935 6.22523 12.9136
499 1 9.59327 6.32437 3.15996
500 1 9.56528 5.6617 0.785291
501 1 10.1467 5.52968 1.64791
502 1 10.5964 6.05724 12.8769
503 1 10.0141 6.13392 2.39556
504 1 10.7282 5.63655 0.774598
505 1 11.2177 5.43984 1.62756
506 1 11.7344 6.01882 12.9034
507 1 11.1435 5.91836 2.38784
508 1 11.742 5.30073 0.804806
509 1 12.2223 5.2396 1.67177
510 1 12.7999 5.79668 0.0212493
511 1 12.2447 5.87234 2.4162
512 1 12.7704 5.23153 0.828279
513 1 8.93729 6.37605 2.40819
514 1 9.54952 7.43641 12.9361
515 1 9.10116 7.39634 2.43876
516 1 9.44887 6.8157 0.630927
517 1 10.0402 6.63819 1.66151
518 1 10.7172 7.17517 0.0350611
519 1 10.2832 7.24136 2.38805
520 1 10.5183 6.74628 0.878756
521 1 11.2209 6.6515 1.48493
522 1 11.7785 7.11107 0.111236
523 1 11.3099 7.02244 2.34255
524 1 11.672 6.45159 0.771798
525 1 12.3086 6.47825 1.54401
526 1 12.907 6.98634 0.0125181
527 1 12.2643 6.95584 2.44377
528 1 12.8394 6.39883 0.727338
529 1 8.90452 7.93265 1.54008
530 1 10.2007 8.38454 12.1828
531 1 8.49484 8.6224 3.25508
532 1 9.41388 7.97259 0.809864
533 1 10.0133 7.78222 1.70373
534 1 10.6333 8.18893 12.9043
535 1 9.94864 8.55192 2.33661
536 1 10.4349 7.83848 0.817934
537 1 11.1368 7.73377 1.46022
538 1 11.8906 8.24559 12.9488
539 1 11.2365 8.27711 2.39808
540 1 11.7063 7.7384 0.793463
541 1 12.3864 7.46491 1.59288
542 1 12.9036 8.04838 12.924
543 1 12.2865 8.05139 2.35381
544 1 12.9335 7.59739 0.87439
545 1 9.53982 5.04574 3.37959
546 1 9.58639 4.5903 4.01379
547 1 10.6039 5.03197 3.16671
548 1 10.6678 4.50993 4.03369
549 1 11.7527 4.84296 3.17886
550 1 11.7297 4.31708 4.06963
551 1 13.0082 4.78614 3.39705
552 1 12.7724 4.16223 3.99726
553 1 9.47709 6.903 3.92513
554 1 9.47719 5.83269 3.94439
555 1 10.7041 6.13743 3.28476
556 1 10.6618 5.61197 4.00486
557 1 11.8174 5.86699 3.32359
558 1 11.7114 5.33864 3.98922
559 1 12.9517 5.8661 3.23979
560 1 12.9215 5.34808 4.10822
561 1 9.5243 8.66477 3.19965
562 1 9.63191 7.50468 3.21368
563 1 10.7377 7.21939 3.21241
564 1 10.5971 6.81144 4.04892
565 1 11.8091 7.14933 3.25451
566 1 11.8604 6.57447 3.99271
567 1 12.9095 6.9074 3.17513
568 1 12.8327 6.39088 4.19537
569 1 8.96844 8.5229 2.37212
570 1 8.98928 8.01589 4.7424
571 1 10.641 8.34606 3.07354
572 1 10.7157 7.88832 4.10898
573 1 11.7899 8.23836 3.18714
574 1 11.8326 7.68516 4.04649
575 1 12.8226 8.04006 3.31811
576 1 12.9076 7.38541 4.07501
577 1 0.0385209 8.70128 1.50181
578 1 0.492097 9.1291 0.000387985
579 1 0.0127603 9.26766 2.37285
580 1 0.703882 8.60016 0.841227
581 1 1.11964 8.62192 1.72733
582 1 1.80791 9.2256 12.8445
583 1 1.14547 9.25775 2.39438
584 1 1.7836 8.79226 0.831354
585 1 2.2399 8.65218 1.7274
586 1 2.90814 9.32317 12.9496
587 1 2.33004 9.30597 2.47658
588 1 2.73969 8.71179 0.66329
589 1 3.19823 8.91022 1.57783
590 1 3.99852 9.57068 12.9302
591 1 3.36322 8.30241 2.52059
592 1 3.75433 8.9089 0.910821
593 1 0.0929933 9.75013 1.50746
594 1 0.529042 10.2919 12.9083
595 1 0.0321018 10.3114 2.48553
596 1 0.604834 9.80057 0.721916
597 1 1.08922 9.85642 1.6447
598 1 1.58511 10.27 12.8656
599 1 1.06351 10.3362 2.54173
600 1 1.66958 9.74935 0.742609
601 1 2.04194 9.83407 1.56724
602 1 2.75647 10.375 0.0762027
603 1 2.26657 10.2841 2.30708
604 1 2.76595 9.87961 0.924559
605 1 3.31963 10.0268 1.68972
606 1 3.96891 10.6596 0.0827021
607 1 3.33019 10.4327 2.60607
608 1 3.84827 10.044 0.749445
609 1 0.0165203 10.8776 1.68174
610 1 0.541827 11.3803 12.9137
611 1 13.3568 11.4297 2.42588
612 1 0.586871 10.9467 0.769941
613 1 1.16416 10.8839 1.63601
614 1 1.73631 11.4807 0.096503
615 1 1.20173 11.4414 2.34171
616 1 1.68673 10.9156 0.786151
617 1 2.17076 10.9476 1.63252
618 1 2.78639 11.5143 0.0322538
619 1 2.27782 11.4716 2.44557
620 1 2.75324 11.0015 0.815587
621 1 3.31729 11.057 1.65129
622 1 3.90253 11.7744 12.9459
623 1 3.45097 11.6086 2.34629
624 1 3.7481 11.2833 0.804986
625 1 0.000397128 11.9472 1.64433
626 1 0.673099 12.3945 12.9061
627 1 13.3641 12.5036 2.46496
628 1 0.468157 12.0366 0.864183
629 1 1.10028 11.9392 1.68898
630 1 1.65362 0.287408 0.0441753
631 1 1.1133 12.6309 2.37858
632 1 1.66782 12.0779 0.862901
633 1 2.28175 12.1169 1.66314
634 1 2.68817 12.6903 12.9047
635 1 2.20508 12.6756 2.42122
636 1 2.69075 12.144 0.718669
637 1 3.29853 12.2426 1.62333
638 1 3.80175 12.8838 12.9032
639 1 3.42734 12.8645 2.43546
640 1 3.77604 12.2756 0.845747
641 1 0.678259 9.15766 3.33458
642 1 0.700496 8.67731 4.26258
643 1 1.69222 9.27169 3.25183
644 1 1.68559 8.82648 4.03935
645 1 2.8215 8.19561 3.38538
646 1 2.80961 8.79261 3.97847
647 1 3.36005 9.36934 2.47004
648 1 3.96796 9.51964 3.11813
649 1 0.557435 10.4491 3.38485
650 1 0.599768 9.71617 3.9555
651 1 1.73283 10.3788 3.19768
652 1 1.77528 9.92237 4.10265
653 1 2.71737 10.599 3.10696
654 1 2.92387 10.1058 4.03337
655 1 3.91972 10.7108 3.21768
656 1 3.86351 10.0754 4.00359
657 1 0.551049 11.5662 3.17805
658 1 0.542878 10.9567 4.08674
659 1 1.64955 11.4965 3.24795
660 1 1.66526 10.9616 4.05821
661 1 2.79079 11.7191 3.10314
662 1 2.70885 11.1213 3.99826
663 1 3.85271 11.8183 3.2187
664 1 3.87652 11.2246 3.98462
665 1 0.496925 12.6387 3.21763
666 1 0.597337 11.9785 3.92132
667 1 1.5365 12.6455 3.24261
668 1 1.70236 12.0263 4.0704
669 1 2.8362 12.7615 3.14327
670 1 2.79917 12.1198 4.09717
671 1 4.00084 12.9791 3.22176
672 1 3.88015 12.4351 3.99319
673 1 4.38479 9.09943 1.48813
674 1 5.13208 9.60523 0.00639083
675 1 4.49771 9.60905 2.30647
676 1 5.10739 9.05106 0.826282
677 1 5.69544 9.16141 1.50097
678 1 6.10643 10.9803 0.099974
679 1 5.53938 9.80681 2.31728
680 1 6.31604 9.14434 0.747873
681 1 6.68897 9.2568 1.7316
682 1 7.33507 9.84747 12.949
683 1 6.65612 9.79265 2.47272
684 1 7.22182 9.2627 0.662762
685 1 8.38148 9.28955 0.902143
686 1 8.50407 9.8868 0.025024
687 1 7.78301 10.3259 1.68372
688 1 8.51168 8.77246 0.0282201
689 1 4.33882 10.2278 1.57108
690 1 5.14455 10.7414 12.9282
691 1 4.59532 10.7831 2.36127
692 1 4.88754 10.1771 0.736793
693 1 5.58366 10.3602 1.56314
694 1 5.59715 10.8635 12.1209
695 1 5.61008 10.8442 2.48121
696 1 6.14853 9.81681 12.9166
697 1 6.18371 10.3876 0.843691
698 1 7.15633 10.9946 0.0958413
699 1 6.66633 10.9791 2.34056
700 1 6.6619 10.2788 1.57606
701 1 7.32301 10.4013 0.760929
702 1 8.45685 10.9212 12.9376
703 1 7.80363 10.9835 2.34976
704 1 8.36437 10.3922 0.948595
705 1 4.47692 11.217 1.56362
706 1 4.90001 11.9341 0.224031
707 1 4.43876 11.9192 2.50564
708 1 5.10253 11.1823 0.810944
709 1 5.52199 11.5475 1.70306
710 1 6.12655 12.158 12.8693
711 1 5.62617 12.0931 2.36404
712 1 6.11447 11.6416 0.801462
713 1 6.5942 11.4485 1.65325
714 1 7.24515 12.0542 0.0272849
715 1 6.7381 12.1193 2.37217
716 1 7.21337 11.5933 0.920846
717 1 7.87377 11.4981 1.4814
718 1 8.35153 11.9397 12.8668
719 1 7.89383 11.9799 2.45639
720 1 8.57197 11.4391 0.768673
721 1 4.48012 12.3311 1.63867
722 1 5.00993 13.03 0.0728676
723 1 4.43288 13.05 2.42902
724 1 5.02138 12.502 0.828787
725 1 5.6364 12.6541 1.54718
726 1 6.14946 13.311 0.095047
727 1 5.48438 13.2552 2.37976
728 1 6.25643 12.646 0.861008
729 1 6.91882 12.7257 1.65853
730 1 7.24742 13.2157 12.9385
731 1 6.59858 13.2871 2.41048
732 1 7.30597 12.7124 0.813102
733 1 7.84429 12.6216 1.72648
734 1 8.42627 13.0894 0.104622
735 1 7.82952 13.1805 2.53386
736 1 8.37808 12.6102 0.753413
737 1 4.99941 9.76818 3.2255
738 1 5.2617 9.14167 3.94171
739 1 6.04114 9.85282 3.22015
740 1 6.30172 9.15635 4.0013
741 1 7.91743 9.8045 2.42578
742 1 7.23191 9.33366 4.00111
743 1 8.50455 9.77858 3.26368
744 1 9.0692 9.11396 4.76419
745 1 5.0039 10.9465 3.21134
746 1 4.94707 10.3848 4.03117
747 1 6.17136 10.9545 3.25087
748 1 6.19739 10.2764 3.98562
749 1 7.23363 10.8979 3.12876
750 1 7.28682 10.4233 4.12346
751 1 8.42869 10.8434 3.17987
752 1 8.35272 10.3056 4.07479
753 1 4.9696 12.0606 3.28884
754 1 5.07745 11.2955 4.08518
755 1 6.08322 11.9556 3.19228
756 1 6.14874 11.5441 4.08935
757 1 7.15488 12.0134 3.22347
758 1 7.3118 11.4645 3.9743
759 1 8.40032 11.9587 3.24164
760 1 8.3646 11.387 4.03253
761 1 5.03758 13.0669 3.29267
762 1 5.09632 12.2988 4.13265
763 1 5.98099 13.1602 3.25217
764 1 6.18486 12.63 4.04057
765 1 7.17166 13.1285 3.13679
766 1 7.19238 12.6148 3.92368
767 1 8.2585 13.1597 3.31758
768 1 8.45492 12.5285 3.98348
769 1 8.99088 9.161 1.5738
770 1 9.6016 9.07105 0.900002
771 1 8.92611 9.64821 2.30711
772 1 9.57339 9.71779 0.029184
773 1 10.2748 8.90745 1.49767
774 1 9.95172 9.59636 12.076
775 1 10.017 9.60814 2.42186
776 1 10.7879 8.88431 0.585768
777 1 11.272 8.79732 1.64133
778 1 11.6745 9.47307 12.8396
779 1 11.1821 9.45591 2.43499
780 1 11.7516 8.83459 0.742721
781 1 12.3117 8.72157 1.69806
782 1 12.9429 9.18246 0.0930733
783 1 12.3523 9.33758 2.48769
784 1 12.8375 8.55869 0.805398
785 1 9.03388 10.3079 1.63076
786 1 9.50041 10.7653 12.883
787 1 8.91327 10.9448 2.42766
788 1 9.48624 10.2008 0.794557
789 1 10.058 10.144 1.61966
790 1 10.7026 10.0537 0.831373
791 1 10.1513 10.6702 2.42395
792 1 10.5504 9.3948 12.8984
793 1 11.1639 9.87732 1.61776
794 1 11.7678 10.466 12.9088
795 1 11.2048 10.5516 2.38922
796 1 11.8799 9.83164 0.907661
797 1 12.3616 9.8558 1.64866
798 1 12.8981 10.4274 0.0936117
799 1 12.3457 10.4871 2.46179
800 1 12.8177 9.74246 0.848355
801 1 8.89438 11.5765 1.66771
802 1 9.48486 11.9095 0.0235562
803 1 8.93275 12.1836 2.51041
804 1 9.58696 11.3165 0.833999
805 1 9.957 11.2372 1.67976
806 1 10.6159 11.6184 12.9513
807 1 10.1067 11.8426 2.44798
808 1 10.6289 11.1737 0.868356
809 1 11.2377 11.0765 1.59936
810 1 11.7395 11.6115 0.146207
811 1 11.26 11.7088 2.47466
812 1 11.7323 10.9345 0.758799
813 1 12.3278 10.9194 1.56873
814 1 12.7747 11.4908 12.8955
815 1 12.2973 11.6608 2.35331
816 1 12.9385 10.9656 0.864622
817 1 8.96448 12.5481 1.62737
818 1 9.5666 12.9502 12.8407
819 1 8.95428 13.2545 2.55302
820 1 9.51238 12.4741 0.793553
821 1 10.055 12.361 1.65897
822 1 10.6688 12.6796 0.0515175
823 1 10.0935 12.9522 2.40411
824 1 10.6521 12.2085 0.849641
825 1 11.1765 12.1537 1.63165
826 1 12.3596 12.4269 12.1679
827 1 11.2188 12.7571 2.47742
828 1 11.7547 12.2004 0.680455
829 1 12.3286 12.1198 1.50922
830 1 11.6734 12.7601 12.8856
831 1 12.2933 12.7748 2.46412
832 1 12.9386 12.0382 0.769038
833 1 9.41709 9.69043 3.16053
834 1 10.3476 9.03785 4.88574
835 1 10.6779 9.47615 3.21861
836 1 10.6273 8.85957 3.97549
837 1 11.8646 9.24226 3.15402
838 1 11.6903 8.798 3.98887
839 1 13.0039 9.03001 3.2671
840 1 12.9238 8.65059 4.05486
841 1 9.53686 10.7262 3.20193
842 1 9.57802 10.2306 4.02667
843 1 10.6752 10.6267 3.24371
844 1 10.6009 10.0104 3.97457
845 1 11.6913 10.3436 3.16872
846 1 11.7443 9.82113 4.07447
847 1 12.9519 10.2092 3.24555
848 1 12.7522 9.74571 4.04688
849 1 9.52408 11.8764 3.17051
850 1 9.48966 11.3538 4.00436
851 1 10.7376 11.6826 3.24266
852 1 10.4767 11.209 4.10251
853 1 11.8424 11.4881 3.18088
854 1 11.6746 10.9716 3.98607
855 1 12.8751 11.3056 3.2975
856 1 12.7919 10.7863 4.05742
857 1 9.55291 13.0512 3.30096
858 1 9.45077 12.4033 4.0223
859 1 10.5669 12.77 3.2454
860 1 10.6946 12.2784 4.01382
861 1 11.7637 12.5718 3.33452
862 1 11.8228 12.0149 4.15999
863 1 12.7619 12.4185 3.2878
864 1 12.9647 11.8873 4.04488
865 1 13.3408 13.1497 4.98243
866 1 13.4288 0.327945 5.74008
867 1 1.05967 13.2436 4.82423
868 1 1.20663 0.334543 5.64247
869 1 2.14157 13.3738 4.77175
870 1 2.25071 0.359901 5.68149
871 1 3.18914 13.4123 4.87901
872 1 3.40204 0.415834 5.76121
873 1 0.0816207 0.853843 4.80337
874 1 13.4255 1.35536 5.69533
875 1 1.18605 1.00346 4.95885
876 1 1.1565 1.37574 5.80629
877 1 2.47914 0.933268 4.84402
878 1 2.14901 1.42726 5.66505
879 1 3.46189 1.07591 4.77762
880 1 3.42285 1.42329 5.75812
881 1 0.125752 1.95467 4.87266
882 1 13.3072 2.42687 5.76209
883 1 1.10799 2.05207 4.7839
884 1 1.18974 2.37134 5.79966
885 1 2.23608 1.94265 4.85372
886 1 2.186 2.573 5.58056
887 1 3.23597 2.60432 5.71269
888 1 3.97723 2.80414 6.45019
889 1 13.4041 2.984 4.87309
890 1 0.0580723 3.58429 5.69235
891 1 1.18386 3.03884 4.97392
892 1 1.01305 3.65536 5.64855
893 1 2.22638 3.20986 4.83178
894 1 2.18701 3.68381 5.70797
895 1 3.2974 3.314 4.90953
896 1 3.3715 3.85623 5.69014
897 1 0.107488 13.1101 8.11249
898 1 0.618497 0.106981 6.37703
899 1 0.624535 13.1575 7.21893
900 1 1.07085 13.1728 8.17581
901 1 1.63096 0.24918 6.50212
902 1 1.70226 13.2711 7.34755
903 1 2.15114 13.1764 8.19242
904 1 2.71356 0.521661 6.55541
905 1 2.70555 13.2994 7.19823
906 1 3.2406 13.265 8.14273
907 1 3.85444 0.463983 6.52405
908 1 3.84904 13.4161 7.29226
909 1 0.0333399 0.898674 8.2459
910 1 0.658913 1.28873 6.64145
911 1 0.514994 0.73068 7.31743
912 1 1.0736 0.819525 8.11786
913 1 1.68178 1.24048 6.6579
914 1 1.75566 0.894978 7.4567
915 1 2.39828 0.857827 8.18463
916 1 2.76075 1.61708 6.36913
917 1 2.94297 0.947036 7.3214
918 1 3.26625 0.498545 8.98494
919 1 3.93762 2.34208 7.25888
920 1 3.8825 1.20044 7.19688
921 1 0.1234 1.81305 8.23374
922 1 0.642572 2.46971 6.33958
923 1 0.554903 1.91308 7.31823
924 1 1.18099 1.90103 8.09837
925 1 1.87991 2.43965 6.47937
926 1 1.74596 2.01147 7.31968
927 1 2.30972 2.02969 8.20012
928 1 2.92321 2.70778 6.58428
929 1 2.86086 1.97353 7.28351
930 1 3.32598 1.62375 8.95703
931 1 3.39459 3.34875 7.93425
932 1 3.36621 2.16009 8.07672
933 1 0.04357 3.03135 8.10975
934 1 0.545741 3.49892 6.62382
935 1 0.547117 2.90478 7.30701
936 1 1.09906 3.02723 8.18792
937 1 1.69822 3.56388 6.44995
938 1 1.66196 3.00698 7.27961
939 1 2.15908 3.05661 8.14735
940 1 2.92139 3.67702 6.38737
941 1 2.67596 3.26226 7.36466
942 1 3.38633 3.82711 8.90432
943 1 4.59413 4.08996 5.63586
944 1 4.02772 1.74807 6.39032
945 1 4.37012 0.0778327 4.88056
946 1 4.52188 0.624332 5.55266
947 1 5.58168 0.353992 4.83269
948 1 5.6364 0.843766 5.77161
949 1 6.74112 0.408273 4.95819
950 1 6.59971 1.04616 5.67382
951 1 7.90896 0.143495 4.77658
952 1 7.78136 0.723373 5.60829
953 1 3.85981 1.8062 3.2737
954 1 3.84521 3.3599 4.08212
955 1 5.53741 1.32104 4.77635
956 1 5.62193 1.93128 5.60977
957 1 6.70181 1.45985 4.71584
958 1 6.59354 3.14202 5.69229
959 1 7.8359 1.39405 4.90061
960 1 7.74243 1.90646 5.66904
961 1 4.5281 1.67642 5.66149
962 1 5.06446 3.48303 7.27077
963 1 5.65299 2.54255 4.86906
964 1 5.01646 3.02513 6.43002
965 1 6.94543 2.60952 4.83088
966 1 6.62596 4.35535 5.70622
967 1 7.91467 2.56002 4.98854
968 1 7.90254 3.10289 5.73613
969 1 5.45362 3.52816 4.8107
970 1 3.98183 3.98273 6.47517
971 1 5.10333 4.67688 4.08598
972 1 5.47918 4.65836 4.9554
973 1 6.71386 3.82164 4.95466
974 1 6.76711 4.85113 4.83452
975 1 7.8339 4.28199 5.68146
976 1 8.33144 4.13151 6.56685
977 1 4.31791 0.0555199 8.12114
978 1 4.97906 0.683958 6.40625
979 1 5.01905 0.133436 7.35681
980 1 5.46842 0.256683 8.12851
981 1 6.0094 0.917881 6.68694
982 1 6.16721 0.175921 7.29203
983 1 6.71131 13.2624 8.77638
984 1 7.25492 0.81679 6.45372
985 1 6.68048 0.418471 8.08434
986 1 7.92635 0.441867 8.00915
987 1 8.39072 0.932873 6.53172
988 1 8.42088 0.220996 7.23565
989 1 4.46679 1.19113 8.14832
990 1 5.17991 1.95862 6.39317
991 1 4.98506 1.27872 7.29771