data.lammps (converted from cfg to data.lammps)
    
2298  atoms
1  atom types
0.0   13.4375  xlo xhi
0.0   13.4375  ylo yhi
0.0   12.952  zlo zhi
0.0  0.0 0.0 xy xz yz
    
    
    
Atoms
  
1 1 0.0808172 13.3401 1.65523
2 1 0.602266 0.424358 12.8944
3 1 13.4371 0.502391 2.30482
4 1 0.682961 0.00779425 0.801632
5 1 1.19898 13.1833 1.62579
6 1 1.79329 0.474322 12.8508
7 1 1.16391 0.341759 2.39822
8 1 1.67899 13.2641 0.696221
9 1 2.14582 13.0397 1.53681
10 1 2.81826 0.177374 12.923
11 1 2.30336 0.25413 2.34658
12 1 2.76727 13.1034 0.785833
13 1 3.33411 13.0099 1.64354
14 1 3.98293 0.168942 12.9435
15 1 3.36478 0.212935 2.40611
16 1 3.98626 13.151 0.819403
17 1 0.108488 1.22613 1.75742
18 1 0.523478 1.61245 0.0207672
19 1 0.0932757 1.79878 2.4676
20 1 0.507205 0.973036 0.821622
21 1 1.09642 0.971111 1.73353
22 1 1.62643 1.45406 12.9088
23 1 1.30532 1.48091 2.42166
24 1 1.59209 0.884394 0.884364
25 1 2.2808 0.833552 1.53713
26 1 2.75191 1.3337 0.0326476
27 1 2.39736 1.31964 2.40968
28 1 2.92604 0.668928 0.834907
29 1 3.41812 0.667885 1.6307
30 1 3.88539 1.14292 0.133678
31 1 3.42182 1.30312 2.32153
32 1 4.08532 0.719395 0.947817
33 1 0.171792 2.28382 1.62522
34 1 0.455503 2.70583 0.053985
35 1 0.0469884 2.87292 2.39495
36 1 0.660464 2.07401 0.81087
37 1 1.25522 2.04902 1.69108
38 1 1.70964 2.56129 0.0435589
39 1 1.05309 2.59264 2.38012
40 1 1.72707 1.93074 0.80853
41 1 2.27274 1.9241 1.68585
42 1 2.76185 2.46213 0.0768784
43 1 2.31594 2.42611 2.50433
44 1 2.81594 1.87676 0.798232
45 1 3.42593 1.91565 1.63753
46 1 3.96421 2.36981 0.0542708
47 1 3.48461 2.41098 2.5283
48 1 3.89516 1.97186 0.834194
49 1 13.3519 3.29762 1.52914
50 1 0.500493 3.75605 0.0286051
51 1 13.4129 3.97045 2.44012
52 1 0.616683 3.21012 0.799097
53 1 1.20209 3.24892 1.58973
54 1 1.50391 3.75996 12.919
55 1 1.03006 3.70509 2.35233
56 1 1.72517 3.10617 0.802704
57 1 2.26498 3.00591 1.75149
58 1 2.70939 3.55154 0.00497999
59 1 2.27314 3.6702 2.40515
60 1 2.76233 3.06169 0.829907
61 1 3.35017 2.90535 1.69351
62 1 3.80592 3.49746 12.8676
63 1 3.38969 3.6433 2.48573
64 1 3.86954 3.06421 0.806647
65 1 0.547456 0.42077 3.18333
66 1 0.619641 13.3761 4.12968
67 1 1.73217 0.328981 3.17627
68 1 1.63655 13.1614 3.99854
69 1 2.83339 0.0937319 3.26635
70 1 2.81502 13.0778 4.09312
71 1 3.87349 0.243818 3.28376
72 1 4.08523 13.108 4.14156
73 1 0.742941 1.45 3.26788
74 1 0.689617 1.06803 4.14591
75 1 1.70956 1.51553 3.44895
76 1 1.84461 0.791861 3.93725
77 1 2.83174 1.23537 3.18779
78 1 2.95054 0.69332 4.05133
79 1 3.97442 1.35265 3.28337
80 1 3.99264 0.840002 4.05642
81 1 0.630435 2.60345 3.28292
82 1 0.637151 2.1925 4.08678
83 1 1.63956 2.58786 3.22392
84 1 1.75636 2.12757 4.0816
85 1 2.82812 2.4402 3.24067
86 1 2.85825 1.83302 3.97309
87 1 3.96104 2.28483 3.19206
88 1 3.92832 1.8775 4.23604
89 1 0.584523 3.8795 3.27449
90 1 0.499586 3.36177 4.00867
91 1 1.69216 3.64245 3.21728
92 1 1.73556 3.19581 4.09709
93 1 2.76229 3.57783 3.35693
94 1 2.78399 3.10598 4.10341
95 1 3.87777 3.35619 3.28724
96 1 4.00052 2.93601 4.0296
97 1 4.43454 13.0525 1.62339
98 1 5.08111 0.336482 0.10208
99 1 4.48604 0.129074 2.41205
100 1 5.12556 13.2459 0.823592
101 1 5.60277 13.2665 1.64699
102 1 6.26828 0.460307 12.9274
103 1 5.65955 0.381309 2.50261
104 1 6.13335 13.3244 0.868513
105 1 6.71968 0.0900566 1.60376
106 1 7.34535 0.613404 12.7591
107 1 6.77065 0.634226 2.40108
108 1 7.28218 0.0555072 0.765575
109 1 7.79442 0.0653789 1.62298
110 1 8.49112 0.866793 0.0881464
111 1 7.91621 0.757844 2.37259
112 1 8.397 0.22681 0.780826
113 1 4.55784 0.823583 1.78424
114 1 4.91483 1.52419 0.0360143
115 1 4.62141 1.39356 2.55047
116 1 5.20735 0.986557 0.866358
117 1 5.65367 0.925226 1.69147
118 1 6.11417 1.65449 12.9207
119 1 5.61061 1.60313 2.28804
120 1 6.22743 0.974939 0.695947
121 1 6.6517 1.17753 1.59452
122 1 7.264 1.72238 0.0609313
123 1 6.86301 1.76089 2.48364
124 1 7.30098 1.16369 0.81505
125 1 7.78202 1.29594 1.70228
126 1 8.57265 1.95393 12.8213
127 1 8.04393 1.96888 2.53401
128 1 8.28384 1.34312 0.860377
129 1 4.49518 1.90432 1.59251
130 1 4.99497 2.52282 0.00434138
131 1 4.63399 2.4336 2.30372
132 1 5.18153 2.02041 0.876817
133 1 5.72958 2.13174 1.61229
134 1 6.02697 2.72412 12.9259
135 1 5.64305 2.74067 2.37797
136 1 6.27467 2.1844 0.796382
137 1 6.87562 2.22297 1.61675
138 1 7.16373 3.03572 12.8942
139 1 6.70371 2.8278 2.3938
140 1 7.24735 2.45154 0.716603
141 1 7.85125 2.45238 1.6424
142 1 8.41963 3.01214 0.0262327
143 1 7.77568 3.06255 2.56082
144 1 8.25924 2.33645 0.779598
145 1 4.42212 3.07797 1.59723
146 1 5.0279 3.61329 0.00858701
147 1 4.37557 3.57429 2.44595
148 1 5.13638 3.04603 0.841137
149 1 5.54208 3.35606 1.5864
150 1 6.11084 3.8352 0.101388
151 1 5.54183 3.98326 2.44946
152 1 6.21677 3.28814 0.799258
153 1 6.76081 3.35753 1.5229
154 1 7.35456 4.11185 12.7917
155 1 6.67314 3.95458 2.28815
156 1 7.42464 3.56911 0.632359
157 1 7.81853 3.4603 1.5181
158 1 8.33789 4.26853 12.9035
159 1 7.76279 4.06783 2.39282
160 1 8.41771 3.55646 0.830423
161 1 4.98709 0.379987 3.20157
162 1 5.05555 13.3659 3.89493
163 1 6.1897 0.51716 3.21614
164 1 6.15291 13.2815 4.04237
165 1 7.39679 0.611361 3.24565
166 1 7.20739 0.0547766 4.06306
167 1 8.42069 0.763121 3.22721
168 1 8.37537 0.195409 4.03513
169 1 5.29295 1.46747 3.22858
170 1 5.02177 0.988882 4.1073
171 1 6.2802 1.70773 3.22851
172 1 6.21513 1.00245 3.93032
173 1 7.39888 1.78638 3.22287
174 1 7.29838 1.24465 3.99551
175 1 8.50824 1.95585 3.31819
176 1 8.49243 1.37857 3.99784
177 1 4.99166 2.53349 3.2728
178 1 5.08424 2.01505 4.07555
179 1 6.13511 2.7948 3.24875
180 1 6.15171 2.18597 4.08037
181 1 7.20082 2.95864 3.26638
182 1 7.32373 2.36292 3.94426
183 1 8.42424 3.05105 3.172
184 1 8.37308 2.68982 4.07564
185 1 5.0385 3.56602 3.16518
186 1 5.19945 3.17034 4.13136
187 1 6.27176 3.86622 3.11975
188 1 6.23039 3.31676 4.12634
189 1 7.2658 4.21458 3.20566
190 1 7.34815 3.66477 3.99699
191 1 8.34019 4.39065 3.2802
192 1 8.4212 3.70254 3.89051
193 1 9.0171 0.293971 1.49752
194 1 9.47583 0.962059 0.0674413
195 1 9.01663 0.929866 2.36083
196 1 9.61253 0.344961 0.778068
197 1 10.1102 0.332543 1.67696
198 1 10.7163 0.872129 0.0978616
199 1 10.1781 0.92755 2.4593
200 1 10.7232 0.284284 0.835729
201 1 11.2642 0.468704 1.67117
202 1 11.8474 0.876427 12.947
203 1 11.2355 0.916591 2.53973
204 1 11.7013 0.313786 0.711623
205 1 12.2918 0.246708 1.53185
206 1 12.815 0.582411 0.00366759
207 1 12.2401 0.718984 2.54562
208 1 12.9388 0.24956 0.880801
209 1 8.9728 1.45579 1.59562
210 1 9.52599 2.21087 0.116354
211 1 9.02675 2.07871 2.40184
212 1 9.57269 1.54557 0.769178
213 1 10.1875 1.47348 1.59245
214 1 10.7219 2.06737 0.0456033
215 1 10.0831 2.0898 2.38575
216 1 10.574 1.41668 0.787233
217 1 11.3004 1.49844 1.57206
218 1 11.7012 1.90572 0.0136804
219 1 11.3156 1.9851 2.43935
220 1 11.8733 1.47501 0.862475
221 1 12.424 1.20619 1.70688
222 1 12.9264 1.74982 0.0633925
223 1 12.3774 1.80236 2.53455
224 1 12.8736 1.2877 0.852893
225 1 8.93411 2.59681 1.63272
226 1 9.53082 3.22199 12.9357
227 1 9.10232 3.19631 2.40915
228 1 9.48966 2.60744 0.990999
229 1 10.2093 2.64266 1.59137
230 1 10.5684 3.25803 12.9059
231 1 10.1188 3.29849 2.34978
232 1 10.6779 2.62451 0.761321
233 1 11.2675 2.575 1.55302
234 1 11.7169 3.07954 12.8853
235 1 11.1732 3.0379 2.33677
236 1 11.8593 2.56402 0.822846
237 1 12.3579 2.32084 1.75212
238 1 12.8787 2.82222 0.076234
239 1 12.364 2.84077 2.46702
240 1 12.9328 2.40023 0.978154
241 1 8.91493 3.73069 1.70272
242 1 9.52316 4.36656 12.8325
243 1 8.90553 4.24954 2.58846
244 1 9.34389 3.77704 0.701748
245 1 10.0118 3.88243 1.6372
246 1 10.6547 4.27111 0.0987429
247 1 10.0879 4.43482 2.34647
248 1 10.411 3.68835 0.794926
249 1 11.1477 3.72252 1.64045
250 1 11.738 4.24008 12.9261
251 1 11.1731 4.2867 2.38003
252 1 11.6499 3.70071 0.721279
253 1 12.2708 3.59493 1.58148
254 1 12.9759 3.90314 12.882
255 1 12.358 4.0374 2.30661
256 1 12.7199 3.48386 0.708226
257 1 9.48216 1.01744 3.13511
258 1 9.51214 0.27416 4.12003
259 1 10.5987 0.794089 3.31159
260 1 10.6198 0.190964 4.13302
261 1 11.8681 0.864515 3.38142
262 1 11.7303 0.161401 4.01853
263 1 12.9656 0.732853 3.27011
264 1 12.8502 0.262393 4.10755
265 1 9.73885 2.04375 3.17733
266 1 9.60369 1.37621 4.05651
267 1 10.7879 2.10306 3.13396
268 1 10.6697 1.46298 3.93238
269 1 11.8357 1.95274 3.39121
270 1 11.9511 1.44797 4.19309
271 1 12.9598 1.73688 3.28116
272 1 12.9653 1.23291 4.17464
273 1 9.56645 3.09808 3.25349
274 1 9.45362 2.44374 3.92763
275 1 10.6756 3.16847 3.17961
276 1 10.5861 2.6114 4.03334
277 1 11.7875 3.15541 3.12279
278 1 11.7457 2.58482 4.0302
279 1 12.9742 2.8002 3.25376
280 1 12.9499 2.38991 4.09573
281 1 9.66907 4.26771 3.26586
282 1 9.56738 3.63405 4.06425
283 1 10.6348 4.30328 3.22989
284 1 10.6361 3.78885 3.99032
285 1 11.8374 4.20873 3.15522
286 1 11.6243 3.58414 4.09994
287 1 12.9173 4.0533 3.16837
288 1 12.7927 3.46391 3.95355
289 1 13.3997 4.48446 1.61388
290 1 0.551092 4.93756 0.076254
291 1 13.3701 5.02442 2.39754
292 1 0.491337 4.28862 0.849659
293 1 1.12559 4.32047 1.55373
294 1 1.66317 4.96221 0.0327599
295 1 1.05061 4.83819 2.45544
296 1 1.64408 4.26638 0.688543
297 1 2.25469 4.21826 1.63949
298 1 2.65396 4.59697 12.8556
299 1 2.07021 4.76186 2.54217
300 1 2.72658 4.16047 0.891886
301 1 3.39251 4.07475 1.69134
302 1 3.83981 4.7074 12.9075
303 1 3.26465 4.6935 2.48699
304 1 3.85843 4.16765 0.699333
305 1 13.2397 5.62573 1.61822
306 1 0.50774 6.09379 0.000432089
307 1 0.0133301 6.14643 2.39445
308 1 0.455746 5.42991 0.718593
309 1 0.951526 5.42045 1.55493
310 1 1.57481 5.94714 12.8706
311 1 1.16228 5.9755 2.29511
312 1 1.71499 5.40764 1.02203
313 1 2.23608 5.25566 1.71504
314 1 2.83887 5.80835 0.0166445
315 1 2.35246 5.85348 2.43394
316 1 2.80212 5.13326 0.687267
317 1 3.39787 5.0639 1.5864
318 1 3.84437 5.81938 12.9191
319 1 3.34395 5.66596 2.33944
320 1 3.94158 5.27528 0.759167
321 1 13.38 6.70902 1.60654
322 1 0.533932 7.22724 0.095896
323 1 0.0309781 7.31126 2.28923
324 1 0.718138 6.58286 0.815894
325 1 1.20424 6.63057 1.69926
326 1 1.72192 7.06569 12.901
327 1 1.12915 7.22804 2.57453
328 1 1.64331 6.36134 0.761278
329 1 2.22409 6.50348 1.55592
330 1 2.86482 6.78193 0.072979
331 1 2.36612 6.83751 2.51327
332 1 2.7825 6.33098 0.823378
333 1 3.38722 6.27565 1.48523
334 1 3.89534 6.92194 12.7884
335 1 3.41075 6.71716 2.40841
336 1 4.02526 6.33088 0.805541
337 1 0.0745499 7.96797 1.6652
338 1 0.523876 8.32491 12.9246
339 1 0.193646 8.38421 2.46877
340 1 0.593998 7.75557 0.916719
341 1 1.25211 7.66064 1.65512
342 1 1.60593 8.20435 0.0171671
343 1 1.26532 8.25275 2.4213
344 1 1.68411 7.5904 0.723113
345 1 2.26974 7.5444 1.58952
346 1 2.66042 8.01446 12.8706
347 1 2.32095 7.96142 2.437
348 1 2.85016 7.51186 0.761057
349 1 3.38152 7.37164 1.57434
350 1 3.91444 8.01341 12.8501
351 1 3.36431 7.92798 2.40811
352 1 3.92472 7.31361 0.706723
353 1 0.421173 5.02627 3.22777
354 1 0.532848 4.46844 4.02482
355 1 1.57823 4.7605 3.32075
356 1 1.75668 4.2158 4.11773
357 1 2.67314 4.56543 3.32404
358 1 2.98819 4.09969 4.16079
359 1 3.9273 4.7347 3.16154
360 1 4.00663 4.04678 3.85724
361 1 0.626838 5.99326 3.18482
362 1 0.500931 5.51177 4.16148
363 1 1.63447 5.887 3.21526
364 1 1.7024 5.38583 4.10676
365 1 2.75295 5.70422 3.34093
366 1 2.78913 5.1469 4.08528
367 1 3.81653 5.8743 3.20107
368 1 3.87791 5.22123 3.96472
369 1 0.511028 6.98773 3.24383
370 1 0.531797 6.5286 4.14324
371 1 1.74163 6.96342 3.18534
372 1 1.67248 6.411 3.97264
373 1 2.9154 6.97864 3.23307
374 1 2.7698 6.38465 4.0225
375 1 3.98813 6.89956 3.21133
376 1 4.09271 6.37464 4.05458
377 1 0.545335 8.1344 3.28722
378 1 0.536019 7.5997 3.93462
379 1 1.66859 8.17504 3.39929
380 1 1.69548 7.4608 4.06856
381 1 2.65016 8.03842 3.29637
382 1 2.80899 7.44716 4.07869
383 1 3.67001 7.96743 3.21163
384 1 4.02993 7.67765 4.09499
385 1 4.42263 4.15372 1.5036
386 1 4.98758 4.85118 12.8841
387 1 4.49987 4.61194 2.50931
388 1 4.94937 4.1498 0.693893
389 1 5.47033 4.36266 1.58794
390 1 6.30346 5.05896 12.8345
391 1 5.68428 5.01381 2.54613
392 1 6.07242 4.46821 0.753775
393 1 6.55429 4.5479 1.67851
394 1 7.2412 5.09027 0.0327868
395 1 6.68772 5.14594 2.51223
396 1 7.15387 4.5055 0.854206
397 1 7.77019 4.59262 1.61523
398 1 8.32141 5.36746 12.93
399 1 7.73796 5.22412 2.34278
400 1 8.32457 4.77726 0.819456
401 1 4.49901 5.18931 1.62006
402 1 4.9452 5.98787 12.8698
403 1 4.42309 5.75323 2.42481
404 1 5.00812 5.29892 0.672461
405 1 5.54246 5.40034 1.59078
406 1 6.09302 6.14289 0.0557407
407 1 5.65611 6.09978 2.52284
408 1 6.02843 5.59066 0.729694
409 1 6.64646 5.64387 1.55943
410 1 7.15013 6.24015 12.8322
411 1 6.64658 6.22679 2.36423
412 1 7.14794 5.69495 0.792478
413 1 7.73925 5.75282 1.6372
414 1 8.41869 6.47171 0.0823764
415 1 7.78621 6.42442 2.45813
416 1 8.36105 5.88736 0.76831
417 1 4.57996 6.36388 1.63163
418 1 5.04592 6.98241 12.9175
419 1 4.47555 6.94387 2.35409
420 1 5.05364 6.50319 0.84141
421 1 5.69042 6.40457 1.45887
422 1 6.25259 7.31431 0.0563618
423 1 5.54145 7.08092 2.44661
424 1 6.20021 6.79509 0.783346
425 1 6.70214 6.88396 1.63729
426 1 7.33107 7.37649 0.102067
427 1 6.60852 7.4618 2.48524
428 1 7.3192 6.70906 0.792213
429 1 7.72811 6.87991 1.70714
430 1 8.37733 7.04738 0.995431
431 1 7.7575 7.65744 2.39986
432 1 8.95999 7.01673 1.74132
433 1 4.35759 7.66234 1.69783
434 1 5.08513 8.1041 12.8562
435 1 4.46418 8.10631 2.53502
436 1 4.9611 7.56433 0.822802
437 1 5.54801 7.61377 1.609
438 1 6.23598 8.30404 0.0337897
439 1 5.71164 8.18938 2.42564
440 1 6.08947 7.87174 0.872584
441 1 6.80916 8.00011 1.51803
442 1 7.27822 8.47531 0.048404
443 1 6.79968 8.45701 2.42946
444 1 7.37025 8.00591 0.782638
445 1 7.92319 8.08995 1.60146
446 1 8.53824 8.12464 0.911313
447 1 7.70427 9.30942 1.55026
448 1 8.47603 7.50926 0.104162
449 1 4.93962 4.89888 3.28087
450 1 5.02694 4.13989 3.96217
451 1 6.12644 4.95446 3.39563
452 1 6.1562 4.36853 4.10064
453 1 7.36401 5.22287 3.29289
454 1 7.24523 4.64134 4.13202
455 1 8.47021 5.40317 3.13826
456 1 8.40149 4.79867 4.15505
457 1 4.90548 5.43556 4.1386
458 1 4.38585 5.20217 4.9579
459 1 6.1474 6.43803 3.66197
460 1 6.18679 5.60618 3.92157
461 1 7.03238 6.1927 3.18754
462 1 7.81486 6.04591 5.12877
463 1 8.16059 6.36455 3.28565
464 1 7.795 5.19827 5.52202
465 1 4.9257 7.07205 3.36168
466 1 5.10989 5.95885 3.17618
467 1 6.15554 7.18494 3.20913
468 1 5.18219 6.51587 4.10374
469 1 7.23663 7.89704 3.98655
470 1 7.31357 7.37412 3.14349
471 1 8.26867 7.62604 3.21914
472 1 8.4513 7.07679 3.96661
473 1 5.05527 8.21631 3.1381
474 1 5.08791 7.81055 3.94312
475 1 6.21853 8.36244 3.28583
476 1 6.02586 7.72261 4.03614
477 1 7.24057 8.60587 3.49462
478 1 6.50152 7.95153 4.84528
479 1 7.79676 8.79652 2.31096
480 1 8.21405 8.11931 4.15162
481 1 8.88665 4.73843 1.61614
482 1 9.44486 5.45591 12.8687
483 1 8.94361 5.27421 2.2996
484 1 9.39316 4.84388 0.718704
485 1 9.95373 4.97708 1.51911
486 1 10.5355 5.31543 12.9007
487 1 10.0451 5.42342 2.45325
488 1 10.5702 4.87843 0.826015
489 1 11.116 4.86835 1.55324
490 1 11.6968 5.32199 12.8927
491 1 11.0872 5.40515 2.4178
492 1 11.7602 4.75373 0.886422
493 1 12.2931 4.72387 1.66494
494 1 12.8161 5.12208 12.9288
495 1 12.3218 5.29982 2.46572
496 1 12.8452 4.58371 0.786944
497 1 8.89192 5.8873 1.64686
498 1 9.49928 6.49522 0.0973715
499 1 9.52584 6.44997 3.24242
500 1 9.46008 5.92813 0.883951
501 1 10.032 6.03203 1.58051
502 1 10.6646 6.55139 12.8619
503 1 10.085 6.36155 2.53846
504 1 10.6159 5.99131 0.658844
505 1 11.1692 6.02333 1.647
506 1 11.8227 6.40355 0.132129
507 1 11.1917 6.41865 2.54989
508 1 11.6498 5.82376 0.836884
509 1 12.1893 5.88501 1.68881
510 1 12.9778 6.26028 0.126786
511 1 12.2971 6.42787 2.45246
512 1 12.7795 5.63746 0.79606
513 1 8.86387 6.53325 2.57075
514 1 9.47059 7.71812 12.941
515 1 8.88367 7.69912 2.51225
516 1 9.40199 7.05887 0.813497
517 1 9.91611 7.09481 1.72041
518 1 10.6094 7.6768 0.105638
519 1 10.1174 7.55052 2.46918
520 1 10.4885 7.0144 0.808658
521 1 11.0552 7.06665 1.55691
522 1 11.6658 7.58834 0.127101
523 1 11.1633 7.49693 2.36383
524 1 11.7444 6.93947 0.859047
525 1 12.2448 6.92321 1.57145
526 1 12.7931 7.43764 12.9342
527 1 12.17 7.35981 2.50531
528 1 12.9621 6.84427 0.867684
529 1 8.96031 8.28445 1.75358
530 1 9.55699 8.80229 0.0995387
531 1 8.21695 8.70319 3.2323
532 1 9.58932 8.14378 0.852214
533 1 10.0526 8.14916 1.66963
534 1 10.6844 8.85301 12.9175
535 1 10.1492 8.77165 2.4793
536 1 10.6327 8.23564 0.871215
537 1 11.2545 8.10815 1.49527
538 1 11.7051 8.58081 0.0364326
539 1 11.1975 8.51759 2.53509
540 1 12.0254 8.15797 0.825049
541 1 12.3552 7.93732 1.68785
542 1 12.8635 8.67502 12.9281
543 1 12.3454 8.53874 2.42196
544 1 12.9461 7.90396 0.770406
545 1 9.44929 5.32266 3.2681
546 1 9.52033 4.82709 4.10002
547 1 10.5824 5.37981 3.28042
548 1 10.6955 4.78112 4.14007
549 1 11.6441 5.23432 3.17985
550 1 11.838 4.65648 3.9724
551 1 12.78 5.09434 3.29955
552 1 12.8906 4.55049 4.09142
553 1 9.43956 7.05907 4.0857
554 1 9.2719 5.96664 4.05896
555 1 10.6567 6.67979 3.33917
556 1 10.413 5.94034 4.0346
557 1 11.6824 6.26517 3.34296
558 1 11.6166 5.75622 4.04729
559 1 12.8987 6.20252 3.24622
560 1 12.8672 5.70468 4.05701
561 1 9.47281 8.8705 3.24433
562 1 9.53489 7.65194 3.26324
563 1 10.4614 7.6063 3.35887
564 1 10.7573 7.04853 4.23517
565 1 11.6421 7.41696 3.26678
566 1 11.8353 6.91436 4.04974
567 1 12.8482 7.32176 3.19711
568 1 12.9191 6.8164 4.04148
569 1 8.93603 8.85088 2.59739
570 1 8.885 8.1985 4.8141
571 1 10.5725 8.76959 3.31497
572 1 10.7073 8.18635 4.07088
573 1 11.788 8.64158 3.2137
574 1 11.7097 8.08725 4.0447
575 1 12.8804 8.32105 3.17583
576 1 12.9091 7.97752 3.98492
577 1 0.031231 8.97174 1.55894
578 1 0.596745 9.39993 12.8844
579 1 13.3556 9.46528 2.31981
580 1 0.451042 8.89092 0.688115
581 1 1.11998 8.83208 1.48449
582 1 1.7022 9.347 12.9378
583 1 1.09479 9.34614 2.43562
584 1 1.70959 8.59268 0.849567
585 1 2.3147 8.68858 1.71385
586 1 2.75865 8.99493 0.0496608
587 1 2.20641 9.24367 2.393
588 1 2.86263 8.52226 0.852976
589 1 3.42103 8.628 1.5842
590 1 3.92323 9.16003 0.0448902
591 1 3.31373 9.02757 2.40295
592 1 3.91652 8.47706 0.757701
593 1 13.4184 10.0724 1.70487
594 1 0.576399 10.5416 12.8262
595 1 13.35 10.7006 2.38053
596 1 0.530291 9.99778 0.771715
597 1 1.0524 9.90435 1.72626
598 1 1.67903 10.375 12.9174
599 1 1.11048 10.5338 2.37423
600 1 1.59228 9.72121 0.784952
601 1 2.0765 9.80068 1.55017
602 1 2.75235 10.3663 0.198697
603 1 2.29201 10.2433 2.56248
604 1 2.79595 9.66926 0.75771
605 1 3.21332 9.66581 1.53771
606 1 3.88625 10.1981 12.9347
607 1 3.37248 10.2241 2.27455
608 1 3.93252 9.70021 0.908443
609 1 0.070181 11.2998 1.62597
610 1 0.529221 11.7021 0.0935734
611 1 0.0805671 11.8774 2.44589
612 1 0.563847 11.0563 0.870937
613 1 1.22525 11.1626 1.58191
614 1 1.56709 11.4594 0.0717106
615 1 1.1465 11.5991 2.5467
616 1 1.62087 10.816 0.761822
617 1 2.20198 10.7962 1.75524
618 1 2.8497 11.4854 12.8215
619 1 2.36448 11.4687 2.41142
620 1 2.72628 10.9648 0.911674
621 1 3.28752 10.8203 1.6408
622 1 3.98382 11.3298 0.0781381
623 1 3.40823 11.5031 2.50567
624 1 3.7992 10.7967 0.797351
625 1 0.0400814 12.3093 1.53969
626 1 0.414067 12.808 0.0287281
627 1 13.2938 12.8012 2.52826
628 1 0.597263 12.3292 0.740857
629 1 1.18459 12.0938 1.58514
630 1 1.59366 12.7822 12.8152
631 1 1.00054 12.6822 2.45435
632 1 1.66966 12.2432 0.640658
633 1 2.2004 11.938 1.60829
634 1 2.7896 12.5523 12.9382
635 1 2.24213 12.5291 2.38783
636 1 2.68305 11.9457 0.730753
637 1 3.3099 11.9063 1.53628
638 1 3.92383 12.4646 12.8853
639 1 3.33808 12.4691 2.39975
640 1 3.85474 12.0308 0.732702
641 1 0.41937 9.37263 3.16728
642 1 0.552269 8.95542 4.03077
643 1 1.60198 9.18114 3.29669
644 1 1.68697 8.66341 4.14577
645 1 2.76636 9.03411 3.19186
646 1 2.93236 8.60176 4.19735
647 1 3.90015 9.24345 3.20625
648 1 3.9363 8.63941 3.94725
649 1 0.493223 10.4474 3.20716
650 1 0.576107 10.0065 4.11674
651 1 1.62215 10.3557 3.27767
652 1 1.76702 9.74709 3.93725
653 1 2.91903 10.2593 3.26545
654 1 2.75871 9.64491 4.08804
655 1 3.95667 10.2851 3.2533
656 1 3.8849 9.7483 4.08939
657 1 0.505587 11.6365 3.29825
658 1 0.583041 10.9609 3.95857
659 1 1.6267 11.4327 3.20382
660 1 1.77444 11.0101 3.97887
661 1 2.79978 11.3553 3.25969
662 1 2.71929 10.6586 4.16466
663 1 3.91241 11.3856 3.29456
664 1 3.89507 10.8778 4.08888
665 1 0.481269 12.895 3.30924
666 1 0.553202 12.2948 3.97174
667 1 1.64885 12.5483 3.17451
668 1 1.62725 12.1603 4.12068
669 1 2.6986 12.586 3.3096
670 1 2.78151 11.8835 3.95042
671 1 3.78743 12.6331 3.22233
672 1 3.82347 11.9877 3.92979
673 1 4.47775 8.63306 1.54367
674 1 5.07542 9.32878 12.8512
675 1 4.37932 9.20966 2.34539
676 1 5.03119 8.74422 0.64863
677 1 5.41281 8.74891 1.72705
678 1 5.98962 10.3769 12.9226
679 1 5.54636 9.41371 2.30574
680 1 6.06338 8.82398 0.886809
681 1 6.56615 9.03124 1.68245
682 1 7.4435 9.62015 12.945
683 1 6.63728 9.52257 2.5579
684 1 7.11971 9.05788 0.76939
685 1 8.31228 9.29734 0.866974
686 1 8.38852 9.73615 12.9414
687 1 7.86657 9.84684 2.33813
688 1 8.41842 8.65426 0.0145884
689 1 4.55406 9.81389 1.50108
690 1 4.92921 10.4277 0.0536858
691 1 4.43945 10.4214 2.29337
692 1 5.08205 9.81729 0.755012
693 1 5.7145 10.0384 1.57614
694 1 5.5524 10.5772 12.124
695 1 5.45395 10.4619 2.44812
696 1 6.29028 9.41076 12.8883
697 1 6.22191 9.90023 0.813887
698 1 7.28561 10.7605 12.8156
699 1 6.67469 10.5086 2.52757
700 1 6.85718 10.0707 1.55775
701 1 7.25464 10.3119 0.723598
702 1 8.43755 10.8797 0.0568492
703 1 7.74681 10.6394 2.0986
704 1 8.25146 10.3325 0.931509
705 1 4.3623 11.0183 1.51086
706 1 4.98779 11.3874 0.123852
707 1 4.41595 11.4812 2.50687
708 1 5.16023 10.9291 0.910068
709 1 5.64418 11.1169 1.62138
710 1 5.9678 11.7374 0.00717822
711 1 5.56149 11.577 2.44014
712 1 6.20279 11.1263 0.655203
713 1 6.6064 11.0496 1.67989
714 1 7.18746 11.8451 12.8663
715 1 6.60304 11.6482 2.33497
716 1 7.1735 11.3428 0.812264
717 1 7.77552 11.3019 1.62549
718 1 8.36423 11.9342 0.0148559
719 1 7.76063 11.9514 2.40103
720 1 8.30635 11.4536 0.776345
721 1 4.44639 12.0071 1.59552
722 1 5.04027 12.6443 0.0750001
723 1 4.55877 12.5769 2.47238
724 1 4.9859 12.1231 0.806832
725 1 5.55772 12.2117 1.54051
726 1 6.20516 12.7957 0.0642885
727 1 5.52011 12.7424 2.45614
728 1 6.1746 12.1916 0.917338
729 1 6.72293 12.2859 1.67805
730 1 7.38474 12.9791 12.9311
731 1 6.75412 12.9434 2.41112
732 1 7.25726 12.3589 0.786802
733 1 7.81911 12.4881 1.68631
734 1 8.44461 13.118 12.8479
735 1 7.85966 13.0777 2.5163
736 1 8.38149 12.5456 0.795878
737 1 4.95098 9.44072 3.11992
738 1 4.96291 8.75449 4.01772
739 1 6.01293 9.25341 3.29994
740 1 6.14111 8.89423 4.23666
741 1 7.289 9.56892 3.32427
742 1 7.85275 9.10872 4.75889
743 1 8.34048 9.80372 3.31816
744 1 8.93923 9.39963 4.85397
745 1 4.92879 10.4237 3.28983
746 1 5.10168 9.79095 4.20822
747 1 6.07055 10.6595 3.19223
748 1 6.08054 9.90332 3.83193
749 1 7.27629 10.8513 3.1373
750 1 7.13201 10.1406 3.92205
751 1 8.15903 10.9893 3.17617
752 1 8.28476 10.3318 4.02858
753 1 5.06258 11.5658 3.28244
754 1 5.08529 10.9255 3.97553
755 1 6.15141 11.7566 3.26545
756 1 6.16089 11.0339 4.0949
757 1 7.13271 11.8856 3.14401
758 1 7.07499 11.337 3.9824
759 1 8.34904 11.9067 3.19523
760 1 8.41854 11.4264 4.07987
761 1 5.0263 12.6696 3.37328
762 1 4.93241 12.1218 4.05272
763 1 6.24013 12.7646 3.17832
764 1 6.0811 12.2097 4.1034
765 1 7.22326 12.9609 3.25792
766 1 7.40529 12.3865 4.03351
767 1 8.44732 13.0244 3.0142
768 1 8.4565 12.5363 4.00235
769 1 8.93474 9.30304 1.73107
770 1 9.32821 9.81984 0.150459
771 1 8.9141 10.0232 2.40784
772 1 9.60363 9.25138 0.973321
773 1 10.0918 9.37467 1.69935
774 1 10.5898 9.93984 0.10269
775 1 9.96983 9.91025 2.53336
776 1 10.799 9.32639 0.864454
777 1 11.2383 9.22112 1.67129
778 1 11.7427 9.74062 12.8851
779 1 11.2092 9.73885 2.40826
780 1 11.8446 9.21947 0.763857
781 1 12.2795 9.03192 1.61513
782 1 12.8302 9.72187 12.9518
783 1 12.2899 9.73597 2.32058
784 1 12.8688 9.15375 0.796315
785 1 8.87359 10.3613 1.50301
786 1 9.38085 10.9496 12.9088
787 1 8.87701 11.0315 2.37436
788 1 9.57773 10.436 0.781215
789 1 10.0954 10.4567 1.68332
790 1 10.5555 11.0255 12.8572
791 1 9.88215 11.1098 2.48967
792 1 10.6959 10.4917 0.763887
793 1 11.1131 10.3655 1.71504
794 1 11.772 10.8725 12.9394
795 1 11.1671 10.9411 2.41094
796 1 11.679 10.435 0.805647
797 1 12.2696 10.2876 1.52646
798 1 12.7793 10.7303 0.0777067
799 1 12.1924 10.9166 2.3816
800 1 12.9564 10.1568 0.864214
801 1 8.85655 11.4806 1.62899
802 1 9.59485 12.0607 12.9429
803 1 9.02465 12.2178 2.4292
804 1 9.48257 11.4827 0.858338
805 1 10.0122 11.5149 1.64677
806 1 10.6527 12.0747 0.0970781
807 1 10.0603 12.1496 2.39302
808 1 10.6148 11.5337 0.799456
809 1 11.1361 11.5807 1.58782
810 1 11.6987 11.9024 12.9455
811 1 11.1421 12.1 2.41291
812 1 11.7486 11.522 0.908284
813 1 12.4006 11.3643 1.60253
814 1 12.8563 11.871 12.9432
815 1 12.3704 11.9738 2.4279
816 1 12.9959 11.3184 0.737207
817 1 8.89787 12.6413 1.53249
818 1 9.46292 13.2522 0.0412171
819 1 9.06249 13.385 2.40074
820 1 9.49689 12.5319 0.821253
821 1 10.1515 12.7175 1.61611
822 1 10.5311 13.2173 12.9356
823 1 10.1035 13.1707 2.47103
824 1 10.668 12.7057 0.824019
825 1 11.2707 12.7883 1.56408
826 1 11.7669 13.1179 0.00875915
827 1 11.3279 13.2884 2.38766
828 1 11.7488 12.5289 0.817288
829 1 12.2686 12.536 1.62338
830 1 12.8578 13.0261 0.057246
831 1 12.4036 13.0869 2.41279
832 1 12.8581 12.4676 0.793924
833 1 9.38483 9.95588 3.29481
834 1 10.0651 9.22898 4.96239
835 1 10.6022 9.86677 3.23045
836 1 10.5489 9.35461 4.1321
837 1 11.6319 9.82761 3.24753
838 1 11.7673 9.19648 3.98643
839 1 12.742 9.54623 3.20352
840 1 12.9062 9.1423 3.91816
841 1 9.2199 10.9916 3.30833
842 1 9.57075 10.5077 4.02268
843 1 10.5194 10.956 3.16325
844 1 10.6501 10.4338 4.16077
845 1 11.718 10.8215 3.20034
846 1 11.7278 10.2504 4.05872
847 1 12.8767 10.4722 3.15375
848 1 12.8313 10.1894 4.12765
849 1 9.48544 12.1533 3.22272
850 1 9.53981 11.576 4.01096
851 1 10.5764 11.9966 3.22313
852 1 10.6284 11.4628 3.97854
853 1 11.7808 12.0936 3.18109
854 1 11.7499 11.4179 4.00054
855 1 12.8754 11.6372 3.11939
856 1 12.7805 11.1931 4.05837
857 1 9.47528 13.3955 3.32094
858 1 9.51835 12.6487 3.95589
859 1 10.6872 13.2255 3.18832
860 1 10.6104 12.6246 3.94343
861 1 11.6976 13.1961 3.20173
862 1 11.8085 12.4747 3.99559
863 1 12.9178 13.0979 3.48068
864 1 12.8518 12.3216 3.84114
865 1 0.00853096 13.254 4.87149
866 1 13.3342 0.451624 5.63056
867 1 1.10054 13.2156 4.95437
868 1 1.13052 0.352419 5.67317
869 1 2.1398 13.1384 4.84406
870 1 2.29511 0.250986 5.66979
871 1 3.4172 12.9672 4.85331
872 1 3.46513 0.0435777 5.63838
873 1 0.0698815 0.912916 4.92079
874 1 0.0892337 1.74526 5.67731
875 1 1.21182 0.951184 4.80734
876 1 1.06776 1.44128 5.64762
877 1 2.32634 0.758109 4.78833
878 1 2.22174 1.1934 5.73455
879 1 3.44629 0.743768 4.89522
880 1 3.28567 1.29889 5.69994
881 1 13.412 2.1115 4.86951
882 1 0.0442659 2.80172 5.61398
883 1 1.15587 2.0806 4.97907
884 1 1.16572 2.6889 5.71832
885 1 2.19629 1.815 4.89933
886 1 2.2667 2.32228 5.78716
887 1 3.31491 1.94865 4.95014
888 1 3.42905 2.50486 5.72925
889 1 0.0228772 3.34626 4.84203
890 1 0.137896 3.83729 5.6866
891 1 1.04788 3.15983 4.74276
892 1 1.21853 3.60012 5.68643
893 1 2.3045 2.80742 4.91936
894 1 2.26846 3.45431 5.50446
895 1 3.42991 3.00589 4.84752
896 1 3.38583 3.55406 5.68419
897 1 0.00155366 13.3905 8.09728
898 1 0.556394 0.391635 6.40759
899 1 0.494714 13.4168 7.40634
900 1 1.06919 13.0785 8.03606
901 1 1.69775 0.19898 6.4741
902 1 1.65314 13.2339 7.27562
903 1 2.14351 13.0914 8.02748
904 1 2.86148 0.0944119 6.50755
905 1 2.71257 13.0589 7.41274
906 1 3.4179 13.0003 8.09952
907 1 3.99442 0.291674 6.43161
908 1 3.91504 13.1067 7.32982
909 1 13.4227 1.07901 8.05313
910 1 0.579073 1.47974 6.44677
911 1 0.670995 0.991139 7.25106
912 1 1.11993 0.843907 8.1555
913 1 1.62563 1.40593 6.43164
914 1 1.70944 0.919988 7.20866
915 1 2.22337 0.747603 8.09297
916 1 2.86836 1.35137 6.6082
917 1 2.73457 0.628673 7.26457
918 1 3.28431 0.737102 8.09212
919 1 3.93743 1.31917 6.56214
920 1 3.95087 0.772025 7.35145
921 1 13.3547 2.15645 8.17525
922 1 0.600226 2.67124 6.5493
923 1 0.468638 2.04555 7.3106
924 1 1.03247 2.14497 8.12099
925 1 1.64459 2.49322 6.48578
926 1 1.49604 1.99977 7.37609
927 1 2.25071 1.83845 8.06415
928 1 2.89176 2.4771 6.52954
929 1 2.65817 1.93433 7.18014
930 1 3.33878 1.84168 8.03523
931 1 4.03809 2.3749 6.44287
932 1 3.85569 1.96179 7.28603
933 1 13.3198 3.20673 8.05576
934 1 0.711212 3.85569 6.50076
935 1 0.648023 3.19364 7.27149
936 1 1.08372 3.27058 8.02983
937 1 1.77108 3.60528 6.5094
938 1 1.77177 3.23412 7.34376
939 1 2.21614 2.95723 8.12313
940 1 2.69985 3.54487 6.44315
941 1 2.89738 3.01519 7.36922
942 1 3.41988 2.81352 8.16146
943 1 3.80569 3.60051 6.53474
944 1 3.95322 3.0181 7.17594
945 1 4.54584 13.1485 4.88182
946 1 4.66838 0.12334 5.68226
947 1 5.60768 13.3754 4.76292
948 1 5.72127 0.375284 5.79598
949 1 6.76444 0.000848055 4.92181
950 1 6.67816 0.622365 5.60517
951 1 7.86411 0.211168 4.73078
952 1 7.83778 0.692369 5.56895
953 1 4.49209 0.760249 4.95435
954 1 4.39965 1.32513 5.4699
955 1 5.64384 0.963103 4.84104
956 1 5.6222 1.4635 5.70313
957 1 6.74489 1.21404 4.81568
958 1 6.74764 1.7221 5.68331
959 1 7.80368 1.31806 4.80264
960 1 7.86544 1.85741 5.65879
961 1 4.6007 2.03516 4.83694
962 1 4.59694 2.59729 5.63345
963 1 5.65572 2.01294 4.96056
964 1 5.6871 2.66853 5.63611
965 1 6.79749 2.2831 4.82217
966 1 6.67781 2.86205 5.65294
967 1 7.81127 2.45217 4.77377
968 1 7.94223 2.85474 5.64323
969 1 4.49064 3.2336 4.77496
970 1 4.38079 3.59101 5.78829
971 1 5.61276 3.19931 4.91038
972 1 5.57643 3.87376 5.58151
973 1 6.80554 3.46028 4.89394
974 1 6.74103 4.05841 5.56037
975 1 7.84415 3.59377 4.9481
976 1 7.83764 4.00612 5.80953
977 1 4.51268 13.1924 8.1263
978 1 5.12819 0.314204 6.48974
979 1 4.91739 13.2233 7.24662
980 1 5.49888 13.363 7.96495
981 1 6.30892 0.467258 6.55157
982 1 6.10302 13.2841 7.30359
983 1 6.72816 0.0227098 8.00248
984 1 7.28614 0.489275 6.40562
985 1 7.33833 13.4193 7.33451
986 1 7.87167 0.248979 8.11827
987 1 8.33578 0.963196 6.47559
988 1 8.4092 0.349399 7.21261
989 1 4.54261 0.862259 8.01725
990 1 4.94394 1.43765 6.38294
991 1 5.1021 1.08951 7.22839