data.lammps (converted from cfg to data.lammps)
    
2298  atoms
1  atom types
0.0   13.4375  xlo xhi
0.0   13.4375  ylo yhi
0.0   12.952  zlo zhi
0.0  0.0 0.0 xy xz yz
    
    
    
Atoms
  
1 1 13.4323 13.3217 1.71007
2 1 0.50226 0.324551 12.9335
3 1 0.149273 0.379933 2.4789
4 1 0.531796 13.1387 0.931746
5 1 1.18424 13.1358 1.67594
6 1 1.52327 0.15417 12.9152
7 1 1.29982 0.260675 2.42714
8 1 1.64272 13.0624 0.837764
9 1 2.36649 13.1299 1.58039
10 1 2.79667 0.437256 0.116855
11 1 2.31787 0.350009 2.39179
12 1 2.79505 13.221 0.678503
13 1 3.37753 13.1413 1.50313
14 1 3.76356 0.326733 12.8556
15 1 3.46812 0.170562 2.35802
16 1 4.01261 13.2201 0.842991
17 1 0.08756 0.921908 1.49414
18 1 0.465926 1.33767 12.9298
19 1 13.4177 1.4136 2.28978
20 1 0.75787 0.832499 0.800198
21 1 1.21841 0.870858 1.61409
22 1 1.55789 1.36295 12.9198
23 1 1.18636 1.38691 2.40415
24 1 1.82427 0.779345 0.62762
25 1 2.28442 0.785536 1.49136
26 1 2.76546 1.45261 12.7754
27 1 2.42149 1.38577 2.47417
28 1 3.2462 0.789601 1.51762
29 1 3.87478 0.753078 0.723004
30 1 4.00288 1.48494 0.0240798
31 1 5.04718 1.71237 3.2909
32 1 4.2925 1.08538 1.59197
33 1 0.0624997 2.09229 1.56916
34 1 0.651265 2.52917 0.0907929
35 1 13.3937 2.58203 2.49263
36 1 0.706211 1.93823 0.696592
37 1 1.14765 1.98082 1.63007
38 1 1.80468 2.34744 12.851
39 1 1.13883 2.55908 2.43961
40 1 1.78568 1.89062 0.832189
41 1 2.34205 1.8236 1.57441
42 1 2.84148 2.37059 0.2375
43 1 2.19808 2.34171 2.47331
44 1 2.92208 1.49709 0.718656
45 1 3.3479 1.97898 1.57838
46 1 4.03891 2.61499 12.8557
47 1 2.81227 2.43129 3.23208
48 1 3.88502 2.04786 0.841199
49 1 0.0379185 3.10777 1.69701
50 1 0.565731 3.59278 0.0379773
51 1 0.130644 3.81942 2.47969
52 1 0.468024 3.26136 0.855755
53 1 1.08095 2.95294 1.56649
54 1 1.63475 3.56338 12.9192
55 1 1.06271 3.57528 2.40081
56 1 1.69003 3.04009 0.795156
57 1 2.24612 2.86884 1.63624
58 1 2.94409 3.60331 0.121014
59 1 2.08481 3.48655 2.427
60 1 2.74523 2.97276 0.765914
61 1 3.38432 3.21195 1.71109
62 1 4.05216 3.58664 0.0976333
63 1 3.4243 3.6029 2.57573
64 1 3.84185 3.06147 0.947428
65 1 0.693968 0.284233 3.19843
66 1 0.545944 13.2735 4.11498
67 1 1.77675 0.193358 3.41468
68 1 1.76514 12.9976 4.08059
69 1 2.89343 0.186498 3.0658
70 1 2.89016 13.085 4.04819
71 1 3.98567 0.293436 3.23181
72 1 3.93867 13.2802 3.95405
73 1 0.524163 1.35267 3.12021
74 1 0.694286 0.948502 4.08918
75 1 1.66374 1.22514 3.24306
76 1 1.7046 0.758137 4.1128
77 1 2.79567 1.32136 3.32618
78 1 2.89777 0.733091 4.03902
79 1 4.04469 1.91432 4.07048
80 1 3.98466 1.39501 3.06351
81 1 0.613761 2.45756 3.23081
82 1 0.61094 1.90333 4.02354
83 1 1.68328 2.40154 3.27818
84 1 1.69205 1.85581 4.0651
85 1 2.929 1.99536 3.99582
86 1 3.33215 2.0328 4.85407
87 1 3.41587 2.49753 2.29885
88 1 4.62546 2.14917 4.83227
89 1 0.534556 3.49235 3.39169
90 1 0.509968 3.12716 4.17699
91 1 1.45458 3.58504 3.305
92 1 1.80032 3.03178 3.93632
93 1 2.69971 3.58822 3.06115
94 1 2.85415 3.07955 3.88854
95 1 4.0045 3.48485 3.26752
96 1 3.84753 2.35844 3.22396
97 1 4.59214 13.3876 1.69413
98 1 5.04186 0.636469 12.837
99 1 4.54302 0.474908 2.39569
100 1 5.10801 0.0975343 0.761325
101 1 5.67468 0.063104 1.70898
102 1 6.12621 0.677659 0.0778427
103 1 5.64581 0.697869 2.4601
104 1 6.22366 0.114518 0.810012
105 1 6.74806 0.273145 1.63809
106 1 7.2741 0.941146 0.0336237
107 1 6.77839 0.732606 2.53019
108 1 7.31122 0.433949 0.882959
109 1 7.88379 0.310335 1.67173
110 1 8.42805 0.906122 0.0803238
111 1 7.96271 0.921205 2.5056
112 1 8.41615 0.330291 0.879743
113 1 4.63446 1.57795 2.34504
114 1 5.01285 1.60609 12.9385
115 1 3.44675 1.35703 2.36308
116 1 4.99729 1.06242 0.970074
117 1 5.66052 1.1914 1.54739
118 1 6.04638 1.86447 0.0374977
119 1 5.61266 1.79884 2.51299
120 1 6.18984 1.23329 0.760241
121 1 6.69286 1.28977 1.73278
122 1 7.33753 2.01098 0.0262506
123 1 6.69314 2.00113 2.26286
124 1 7.22791 1.50507 0.926302
125 1 7.77267 1.50027 1.74397
126 1 8.42514 2.11197 0.109054
127 1 7.86708 2.10298 2.42708
128 1 8.27914 1.42819 0.796688
129 1 4.56501 2.32666 1.63919
130 1 5.17157 2.83104 0.0396922
131 1 4.49323 2.71416 2.50427
132 1 4.9452 2.07077 0.818511
133 1 5.6223 2.24597 1.52765
134 1 6.18399 2.83495 0.136216
135 1 5.59769 2.75199 2.49379
136 1 6.39586 2.30491 1.03605
137 1 7.89833 2.64273 1.54607
138 1 7.75221 3.1215 12.0901
139 1 6.75635 2.88617 2.30943
140 1 7.25022 2.59857 0.942009
141 1 8.46089 2.71052 0.681705
142 1 8.99052 3.33985 12.1511
143 1 7.82413 3.18998 2.31002
144 1 8.28906 3.28429 12.9047
145 1 4.54126 3.35886 1.56078
146 1 5.11752 3.9503 0.0239255
147 1 4.49546 3.84648 2.34593
148 1 5.06794 3.23314 0.814323
149 1 5.70449 3.26903 1.63387
150 1 6.37814 4.05173 12.8484
151 1 5.58788 3.84251 2.32426
152 1 6.13017 3.59436 0.792727
153 1 7.37 3.97853 0.477065
154 1 6.97612 3.91344 12.1688
155 1 6.72293 3.5835 1.51636
156 1 7.70477 3.75334 1.41994
157 1 7.9356 4.24977 2.52159
158 1 8.33996 4.31439 12.9226
159 1 8.47659 4.0999 3.25675
160 1 8.43625 3.71953 0.901642
161 1 5.11277 0.520352 3.26643
162 1 5.09562 13.3614 4.08972
163 1 6.12794 0.694958 3.20964
164 1 6.2038 0.0856659 4.12393
165 1 7.37936 0.70018 3.22677
166 1 7.24183 0.374629 4.02377
167 1 8.41423 0.799899 3.35761
168 1 8.34861 0.374949 4.20356
169 1 5.09987 1.05998 4.0482
170 1 4.48209 0.878565 4.87099
171 1 6.38084 1.73377 3.17421
172 1 6.27874 1.23789 3.97819
173 1 7.35921 1.84246 3.19058
174 1 7.38366 1.43414 4.09891
175 1 8.49965 2.0155 3.23924
176 1 8.44494 1.49125 4.05974
177 1 5.08303 2.81939 3.2093
178 1 5.13666 2.22704 4.01982
179 1 6.26957 3.01939 3.25072
180 1 6.19289 2.31762 3.96172
181 1 7.33403 3.02232 3.20488
182 1 7.38399 2.45566 3.91532
183 1 8.34528 2.99702 3.15825
184 1 8.59047 2.5814 4.17361
185 1 5.14772 3.37479 4.01213
186 1 4.54288 3.29802 4.94816
187 1 6.78474 4.01183 2.38265
188 1 6.1836 3.5771 3.9651
189 1 7.31392 4.23168 3.19605
190 1 7.37595 3.6355 4.00173
191 1 8.32191 4.73959 3.93838
192 1 7.79325 3.69558 4.97827
193 1 9.00292 0.395038 1.77025
194 1 9.53771 0.997707 0.216318
195 1 9.01179 0.939582 2.51327
196 1 9.43385 0.35034 0.855547
197 1 10.1238 0.448254 1.50251
198 1 10.602 0.678844 12.9303
199 1 10.0499 0.929006 2.53848
200 1 10.6632 0.0903587 0.862765
201 1 11.3132 0.0610139 1.55895
202 1 11.7373 0.655862 12.916
203 1 11.1203 0.617535 2.26207
204 1 11.7433 0.125072 0.83675
205 1 12.4465 13.4148 1.61734
206 1 12.9612 0.580345 0.0265364
207 1 12.3759 0.457637 2.49288
208 1 13.0017 13.4315 0.758801
209 1 8.92206 1.4785 1.49552
210 1 9.42035 2.12268 12.9505
211 1 9.08758 1.90395 2.43175
212 1 9.62017 1.55902 0.939038
213 1 10.0868 1.39397 1.73499
214 1 10.5978 1.8582 0.02363
215 1 10.0977 1.9233 2.5245
216 1 10.7226 1.30226 0.847093
217 1 11.2342 1.26658 1.71034
218 1 11.8638 1.89588 0.0274948
219 1 11.3183 1.7667 2.49649
220 1 11.7503 1.19565 0.700892
221 1 12.209 1.04919 1.60205
222 1 12.857 1.7264 0.00808859
223 1 12.4729 1.63 2.35343
224 1 12.9051 1.11758 0.879183
225 1 8.93169 2.47022 1.57553
226 1 9.55946 3.27182 0.150387
227 1 8.99294 3.04912 2.25168
228 1 9.57439 2.6742 0.855617
229 1 10.1015 2.58247 1.68302
230 1 10.639 3.01738 0.125828
231 1 10.0478 3.07705 2.50742
232 1 10.7048 2.30919 0.817271
233 1 11.125 2.34754 1.68066
234 1 11.699 2.90654 0.100216
235 1 11.3046 2.97764 2.47065
236 1 11.7308 2.31477 0.89433
237 1 12.2875 2.1735 1.59877
238 1 12.8669 2.72398 12.9098
239 1 12.2692 2.77627 2.36785
240 1 12.9118 2.21818 0.826505
241 1 8.9101 3.75781 1.69926
242 1 9.46211 4.18893 0.000852881
243 1 9.00583 4.33233 2.36695
244 1 9.49632 3.91824 0.850542
245 1 10.0817 3.61325 1.60966
246 1 10.5182 4.22174 0.058297
247 1 10.0693 4.20656 2.46813
248 1 10.778 3.48495 0.878069
249 1 11.2222 3.42111 1.65861
250 1 11.7796 3.99229 0.0495821
251 1 11.1191 4.07477 2.50352
252 1 11.875 3.37703 0.975214
253 1 12.4569 3.37632 1.7514
254 1 12.8621 4.00147 12.921
255 1 12.4 3.93162 2.59326
256 1 12.8525 3.3638 0.713436
257 1 9.52691 0.910514 3.44974
258 1 9.48978 0.240987 4.06399
259 1 10.6543 0.72885 3.31595
260 1 10.6373 0.133036 4.04293
261 1 11.7679 0.659813 3.05472
262 1 11.8958 0.182621 4.00315
263 1 12.9879 0.380729 3.23027
264 1 12.8348 13.2564 3.99153
265 1 9.5765 2.12046 3.2918
266 1 9.67179 1.56787 4.03693
267 1 10.7235 1.88955 3.26415
268 1 10.7753 1.33734 4.04183
269 1 12.0009 1.75612 3.14002
270 1 11.7166 1.17116 3.90912
271 1 13.0231 1.50323 3.35734
272 1 12.9281 1.0679 4.00335
273 1 9.33018 3.14077 3.18238
274 1 9.68877 2.68395 4.04127
275 1 10.6743 2.95 3.23524
276 1 10.7113 2.45979 4.11986
277 1 11.8243 2.79371 3.34052
278 1 11.8854 2.25405 4.01336
279 1 12.89 2.65998 3.26311
280 1 12.8821 2.19062 4.09229
281 1 9.52344 4.17846 3.25024
282 1 9.43346 3.70575 4.11563
283 1 10.6291 4.31041 3.3765
284 1 10.5592 3.57158 3.87105
285 1 11.7078 3.88513 3.16626
286 1 11.7461 3.49164 4.17249
287 1 12.8964 3.71044 3.25776
288 1 12.7728 3.4532 4.13302
289 1 0.0212427 4.26044 1.58386
290 1 0.699558 4.65439 0.118562
291 1 0.0220374 4.81642 2.32172
292 1 0.657915 4.31766 0.947816
293 1 1.292 4.25516 1.63222
294 1 1.74306 4.56665 0.0769059
295 1 1.188 4.75249 2.50682
296 1 1.78172 4.06307 0.896655
297 1 2.4322 4.05153 1.76757
298 1 2.82698 4.77622 12.9511
299 1 2.26144 4.76998 2.37768
300 1 2.75983 4.21022 0.743671
301 1 3.39281 4.14933 1.50937
302 1 3.99039 4.76596 12.8691
303 1 3.42956 4.63223 2.39054
304 1 3.99313 4.28687 0.718203
305 1 0.0635979 5.47903 1.68311
306 1 0.586063 5.92852 12.8164
307 1 13.4207 6.07184 2.42631
308 1 0.541846 5.3883 0.76042
309 1 1.03396 5.29213 1.69913
310 1 1.62931 5.74647 0.0639237
311 1 1.09484 5.84648 2.47325
312 1 1.60645 5.29673 0.814062
313 1 2.23681 5.20272 1.49565
314 1 2.69755 5.74841 12.9462
315 1 2.17279 5.74937 2.38674
316 1 2.93185 5.33463 0.85622
317 1 3.42893 5.29982 1.69547
318 1 3.80726 5.91832 12.8119
319 1 3.19388 5.86386 2.35234
320 1 3.94819 5.39794 0.733959
321 1 13.38 6.59435 1.51966
322 1 0.679974 7.06454 0.0161926
323 1 0.0161039 7.11627 2.37971
324 1 0.497179 6.46275 0.817577
325 1 1.12063 6.38199 1.53973
326 1 1.77386 6.89368 12.8742
327 1 1.02274 6.82051 2.39094
328 1 1.61757 6.43198 0.745325
329 1 2.24312 6.28299 1.60263
330 1 2.82283 6.92532 0.0290039
331 1 2.18155 6.78658 2.46762
332 1 2.82697 6.40313 0.884451
333 1 3.39893 6.50044 1.67956
334 1 3.93162 7.06626 0.0547345
335 1 3.37254 7.01608 2.54906
336 1 3.85693 6.46629 0.654374
337 1 0.0213306 7.67554 1.62272
338 1 0.442397 8.12778 12.8884
339 1 13.3586 8.15412 2.29981
340 1 0.636392 7.52399 0.9306
341 1 1.15325 7.51754 1.62764
342 1 1.50409 7.8439 0.0417328
343 1 1.22086 8.06027 2.42164
344 1 1.89363 7.61785 0.867399
345 1 2.34076 7.42958 1.65995
346 1 2.80936 7.98701 12.8344
347 1 2.28537 8.0414 2.28664
348 1 2.85855 7.57479 0.699901
349 1 3.43008 7.50312 1.55423
350 1 3.89393 8.21477 12.8752
351 1 2.73813 9.19586 3.1772
352 1 4.01637 7.74026 0.776189
353 1 0.686379 4.69888 3.26446
354 1 0.585833 4.33875 4.03491
355 1 1.78785 4.60736 3.22944
356 1 1.71622 4.10744 4.1669
357 1 2.76521 4.66922 3.25814
358 1 2.8513 4.08004 4.04196
359 1 3.78407 4.86695 3.37279
360 1 3.95648 4.10533 3.89705
361 1 0.529416 5.85492 3.27525
362 1 0.585643 5.3919 4.1683
363 1 1.73692 5.8176 3.2896
364 1 1.71593 5.20492 3.98445
365 1 2.8513 5.90003 3.20953
366 1 2.82213 5.29106 4.01644
367 1 3.83013 5.98118 3.26679
368 1 4.02473 5.34927 4.17653
369 1 0.53317 7.04684 3.28126
370 1 0.546112 6.47546 3.98459
371 1 1.59581 7.00225 3.21226
372 1 1.57935 6.44859 4.0838
373 1 2.69668 7.00166 3.23488
374 1 2.63598 6.43018 4.02741
375 1 5.13361 7.26975 3.10298
376 1 3.26866 6.26495 4.89115
377 1 0.534275 8.11808 3.13745
378 1 0.655351 7.68054 4.09408
379 1 1.67309 7.99873 3.23946
380 1 1.7225 7.52395 4.0852
381 1 3.85844 8.35819 3.17597
382 1 2.94326 7.47144 4.01434
383 1 3.93457 7.09207 3.31611
384 1 3.98293 7.70868 3.90412
385 1 4.49475 4.46059 1.54612
386 1 5.15514 4.98957 0.0349599
387 1 4.43098 4.80841 2.59802
388 1 5.19495 4.43861 0.888172
389 1 5.54177 5.1077 2.34408
390 1 6.23638 4.64645 0.806641
391 1 6.16629 5.10808 3.21755
392 1 5.5681 4.50953 1.70811
393 1 6.65483 4.64467 1.71214
394 1 6.8451 5.19064 12.1748
395 1 6.58819 5.24221 2.31178
396 1 7.2021 4.84904 0.904204
397 1 7.86369 4.81486 1.66032
398 1 8.42635 5.45554 0.0631836
399 1 7.72432 5.33986 2.46616
400 1 8.41709 4.91217 0.821192
401 1 4.46746 5.57073 1.63665
402 1 5.04131 6.13239 0.0232488
403 1 4.45737 5.92625 2.54341
404 1 4.91559 5.65981 0.731671
405 1 5.4875 5.7249 1.54609
406 1 6.14176 6.23949 0.093333
407 1 6.07148 6.2845 3.21058
408 1 6.08106 5.64993 0.762918
409 1 6.67814 5.85888 1.71825
410 1 7.31301 5.86325 0.817528
411 1 6.651 6.39053 2.39751
412 1 7.45377 5.11072 12.924
413 1 7.85786 5.87946 1.61207
414 1 8.33293 6.43022 12.8843
415 1 7.84888 6.43702 2.46883
416 1 8.42702 6.12888 0.863119
417 1 4.33647 6.60362 1.69755
418 1 5.16656 7.19429 12.7916
419 1 4.51758 7.15739 2.48691
420 1 4.88792 6.80811 0.87807
421 1 5.46453 6.22733 2.52023
422 1 6.23515 7.52786 12.8817
423 1 5.50587 6.72732 1.58643
424 1 6.10173 6.90728 0.770992
425 1 6.63409 6.87097 1.48321
426 1 7.24766 7.4852 12.9495
427 1 6.79307 7.44706 2.53912
428 1 7.19578 6.92085 0.654919
429 1 7.71932 6.92883 1.66067
430 1 8.28421 7.10044 0.684596
431 1 7.78919 7.47159 2.37954
432 1 8.83827 7.25301 1.65787
433 1 4.42521 7.76377 1.6042
434 1 5.02138 8.29522 12.9452
435 1 4.40061 8.23177 2.46409
436 1 5.105 7.80864 0.727225
437 1 5.75968 7.37013 2.2814
438 1 6.17463 8.535 12.9433
439 1 5.46681 7.92681 1.63193
440 1 6.09469 7.98123 0.934642
441 1 6.77985 7.91301 1.56726
442 1 7.24283 8.73351 0.0882605
443 1 6.82425 8.49633 2.27402
444 1 7.2889 8.15933 0.706912
445 1 7.76873 8.09109 1.59486
446 1 8.39118 8.11227 0.857702
447 1 7.9052 9.09773 1.6898
448 1 8.34008 7.58723 12.8694
449 1 5.09883 5.06801 3.19381
450 1 5.14733 3.91186 3.19886
451 1 6.1363 5.74997 4.08813
452 1 6.20321 4.09336 3.09659
453 1 7.20762 5.28326 3.18307
454 1 7.36477 4.73003 4.08193
455 1 8.39488 5.37505 3.16759
456 1 8.34631 3.60896 4.12076
457 1 5.05169 5.65873 4.07779
458 1 4.49417 4.75044 5.70482
459 1 6.02161 6.83067 3.96261
460 1 6.10682 7.47146 3.31922
461 1 7.12423 6.31326 3.24797
462 1 7.77448 6.53376 5.56436
463 1 8.492 6.50321 3.19035
464 1 7.87604 5.98439 4.79216
465 1 4.99199 7.89069 3.99411
466 1 4.93308 6.211 3.41588
467 1 6.14899 8.6217 3.21316
468 1 4.91296 6.8348 4.16386
469 1 6.24939 8.0337 4.14956
470 1 7.24815 7.53947 3.28214
471 1 8.25889 7.58911 3.16579
472 1 8.43776 6.98714 4.02748
473 1 5.10695 8.43204 3.1567
474 1 4.34136 7.60679 4.88574
475 1 5.50534 7.87807 4.70417
476 1 6.62553 7.93318 5.00968
477 1 7.16987 8.68834 3.17025
478 1 6.6057 9.16282 4.90268
479 1 7.95828 8.62012 2.54344
480 1 8.34207 8.14413 4.051
481 1 8.9931 4.94401 1.55993
482 1 9.44166 5.31297 12.9126
483 1 8.89162 5.43223 2.3669
484 1 9.59244 4.97149 0.813134
485 1 10.0808 4.68388 1.7075
486 1 10.5926 5.27279 12.9359
487 1 10.1222 5.30323 2.42193
488 1 10.6327 4.70463 0.94819
489 1 11.265 4.59787 1.77988
490 1 11.7388 5.20852 0.0367516
491 1 11.2836 5.2558 2.64043
492 1 11.7275 4.4604 0.774203
493 1 12.2173 4.41511 1.73774
494 1 12.9484 4.99066 0.0590405
495 1 12.4416 5.04602 2.41535
496 1 12.8182 4.44203 0.848412
497 1 8.8903 6.06007 1.66894
498 1 9.34012 6.4914 0.0335593
499 1 9.5325 6.46559 3.20157
500 1 9.58505 6.00362 0.825492
501 1 10.1668 5.82432 1.69855
502 1 10.5576 6.37953 12.9262
503 1 10.0262 6.44565 2.42046
504 1 10.5696 5.76481 0.82525
505 1 11.202 5.66427 1.68829
506 1 11.7204 6.24888 0.0669072
507 1 11.1924 6.26095 2.64003
508 1 11.6787 5.62742 0.852563
509 1 12.2303 5.60719 1.60887
510 1 13.0077 6.02757 12.9309
511 1 12.2289 6.1506 2.40621
512 1 12.938 5.50903 0.897706
513 1 8.93516 6.62329 2.36568
514 1 9.51184 7.6712 12.9108
515 1 9.02113 7.74566 2.48177
516 1 9.43333 7.12779 0.8177
517 1 9.97742 7.06186 1.5477
518 1 10.4905 7.4143 0.125961
519 1 10.0568 7.65846 2.36375
520 1 10.6828 6.82577 0.888103
521 1 11.1699 6.86731 1.69165
522 1 11.7713 7.36262 12.7847
523 1 11.2887 7.45099 2.34765
524 1 11.7382 6.87696 0.759567
525 1 12.2895 6.66855 1.57385
526 1 12.9439 7.27783 0.135381
527 1 12.3095 7.2122 2.47001
528 1 12.7738 6.57375 0.686605
529 1 8.96871 8.23265 1.50912
530 1 10.1001 8.82873 12.1831
531 1 8.52506 8.71907 3.35783
532 1 9.59525 8.26722 0.873066
533 1 10.2122 8.1098 1.55112
534 1 10.6822 8.58537 0.00887186
535 1 10.0501 8.67166 2.37716
536 1 10.6403 8.11938 0.693916
537 1 11.285 7.96673 1.51554
538 1 11.7533 8.69335 0.000611649
539 1 11.1936 8.52017 2.56679
540 1 11.7128 7.88685 0.645846
541 1 12.3288 7.68098 1.53634
542 1 12.7367 8.35107 12.8372
543 1 12.3294 8.31573 2.41735
544 1 12.8817 7.89213 0.706898
545 1 9.49986 5.34354 3.2757
546 1 9.46329 4.7965 4.09677
547 1 10.6098 5.30464 3.25265
548 1 10.6559 4.69439 4.15943
549 1 11.9468 5.0217 3.25945
550 1 11.8745 4.54119 4.06091
551 1 13.0276 4.88217 3.29153
552 1 13.0479 4.43939 4.07715
553 1 9.50839 6.94434 4.06883
554 1 9.52664 5.90836 4.02847
555 1 10.5774 6.39845 3.20215
556 1 10.6155 5.81087 4.12453
557 1 11.8692 6.29185 3.45017
558 1 11.6011 5.6681 3.94168
559 1 12.8716 5.96988 3.11573
560 1 12.8375 5.58793 4.08281
561 1 9.50354 8.79353 3.22299
562 1 9.47502 7.51108 3.29619
563 1 10.6298 7.51663 3.08382
564 1 10.5858 6.85686 4.03447
565 1 11.7094 7.2942 3.27161
566 1 11.7763 6.79662 4.17114
567 1 12.8783 7.23625 3.33223
568 1 12.9436 6.61915 3.97637
569 1 9.05177 8.82949 2.34054
570 1 8.97903 8.09319 4.74301
571 1 10.5377 8.70469 3.29529
572 1 10.6267 7.97141 3.84444
573 1 11.8236 8.45698 3.22643
574 1 11.8178 7.91467 4.09358
575 1 12.9421 8.35412 3.28112
576 1 12.9032 7.70952 4.08461
577 1 0.113623 8.7695 1.63988
578 1 0.542135 9.28269 12.9368
579 1 13.2972 9.33191 2.44718
580 1 0.483704 8.64729 0.776676
581 1 1.162 8.69871 1.67166
582 1 1.64099 9.06294 0.00833488
583 1 0.974532 9.23136 2.46794
584 1 1.55831 8.6287 0.700768
585 1 2.18463 8.67549 1.51321
586 1 2.70051 9.1242 0.0660757
587 1 2.1482 9.23995 2.53753
588 1 2.84491 8.58117 0.786875
589 1 3.27022 8.60124 1.56055
590 1 3.83174 9.19247 12.8623
591 1 3.31613 8.09888 2.41085
592 1 3.97729 8.76704 0.839527
593 1 13.3658 9.89641 1.62918
594 1 0.520555 10.38 0.0574143
595 1 13.4268 10.5289 2.42333
596 1 0.404121 9.82285 0.872392
597 1 1.07474 9.80952 1.64213
598 1 1.70199 10.2966 12.917
599 1 1.03991 10.2421 2.43912
600 1 1.6143 9.71576 0.744876
601 1 2.13909 9.62214 1.57395
602 1 2.90504 10.299 0.0499736
603 1 2.20358 10.2998 2.3476
604 1 2.76227 9.7081 0.775178
605 1 3.3083 9.77649 1.55836
606 1 3.98528 10.2983 0.101686
607 1 3.25773 10.3376 2.43986
608 1 3.93394 9.71831 0.825579
609 1 0.0582856 11.1046 1.57305
610 1 0.536037 11.6033 12.8895
611 1 0.0272171 11.5481 2.56986
612 1 0.677173 10.9821 0.751523
613 1 1.12935 10.8503 1.65559
614 1 1.80132 11.4961 12.8249
615 1 1.25202 11.486 2.39056
616 1 1.65625 10.8843 0.742622
617 1 2.19657 10.7968 1.5785
618 1 2.77468 11.4017 12.9316
619 1 2.2984 11.5014 2.44303
620 1 2.72654 10.8467 0.73242
621 1 3.39817 10.9275 1.61206
622 1 3.93889 11.4377 0.183551
623 1 3.29294 11.4055 2.4225
624 1 3.86192 10.9454 0.874844
625 1 13.3521 12.1059 1.63193
626 1 0.608033 12.6462 12.9381
627 1 0.00387469 12.6683 2.42568
628 1 0.532724 12.0899 0.788208
629 1 1.07178 11.9754 1.609
630 1 1.72934 12.5223 12.9389
631 1 1.1138 12.5706 2.45504
632 1 1.69796 11.991 0.884623
633 1 2.2546 11.9656 1.56148
634 1 2.70165 12.5383 0.114196
635 1 2.19651 12.5448 2.28851
636 1 2.86019 11.9333 0.822718
637 1 3.51393 12.0144 1.72868
638 1 3.80641 12.6548 12.9277
639 1 3.39973 12.5852 2.47647
640 1 3.87614 12.1608 0.842534
641 1 0.465725 9.20932 3.23116
642 1 0.585706 8.6129 4.0125
643 1 1.53851 9.12385 3.19964
644 1 1.75136 8.72283 4.00428
645 1 2.70501 8.10132 3.13707
646 1 2.70133 8.5892 4.06052
647 1 3.24403 9.16517 2.25638
648 1 3.81008 9.42409 3.20157
649 1 0.521008 10.4519 3.32637
650 1 0.478117 9.73668 4.02255
651 1 1.63935 10.3365 3.1829
652 1 1.62927 9.74314 3.95213
653 1 2.71636 10.2567 3.2356
654 1 2.71257 9.70861 4.0342
655 1 3.95841 10.3816 3.16048
656 1 3.86653 9.87279 4.12372
657 1 0.603505 11.584 3.13515
658 1 0.536058 11.0752 3.94739
659 1 1.64869 11.3583 3.20723
660 1 1.69482 10.8204 4.18167
661 1 2.70216 11.5178 3.33973
662 1 2.92935 10.8643 3.98993
663 1 3.85788 11.4742 3.20159
664 1 3.87661 10.9423 3.9988
665 1 0.585096 12.6467 3.31367
666 1 0.687957 12.1505 4.1123
667 1 1.74915 12.5752 3.18405
668 1 1.66603 11.9156 4.03805
669 1 2.70223 12.5999 3.1112
670 1 2.82275 12.0471 4.0321
671 1 3.82125 12.529 3.35619
672 1 3.92605 12.0501 4.06255
673 1 4.51165 8.76696 1.58042
674 1 5.0233 9.60179 0.0102793
675 1 4.45405 9.24071 2.51796
676 1 5.04414 8.95186 0.606597
677 1 5.55952 9.03489 1.47391
678 1 6.09893 10.8183 0.0220192
679 1 5.58359 9.48475 2.35162
680 1 6.24079 9.01873 0.791581
681 1 6.6718 9.10624 1.64795
682 1 7.20332 9.7594 0.000343977
683 1 6.78849 9.68438 2.31053
684 1 7.32029 9.40203 0.898632
685 1 8.41537 9.18164 0.728566
686 1 8.41448 9.86225 0.071876
687 1 7.96287 10.3435 1.70334
688 1 8.41904 8.66826 0.00328398
689 1 4.40355 9.88804 1.72496
690 1 5.07936 10.621 0.0472072
691 1 4.38541 10.5736 2.28854
692 1 4.94003 10.0293 0.948529
693 1 5.63644 10.0967 1.71351
694 1 5.5857 10.6386 12.1388
695 1 5.52675 10.683 2.42759
696 1 6.11582 9.71221 0.128713
697 1 6.12 10.2349 0.839859
698 1 7.1202 10.7511 0.0666966
699 1 6.63082 10.7783 2.5199
700 1 6.79364 10.336 1.57474
701 1 7.35309 10.3521 0.942185
702 1 8.32648 11.1079 0.0824053
703 1 7.89213 10.9375 2.45084
704 1 8.44957 10.5039 0.804656
705 1 4.49879 11.201 1.62978
706 1 5.07528 11.691 0.155495
707 1 4.49458 11.5991 2.47853
708 1 5.0521 11.0797 0.963362
709 1 5.67615 11.292 1.71224
710 1 6.22476 11.8574 12.9
711 1 5.52879 11.8717 2.52754
712 1 6.17469 11.3817 0.861936
713 1 6.77499 11.448 1.7436
714 1 7.28788 11.941 0.096441
715 1 6.68217 11.946 2.39817
716 1 7.25738 11.4051 0.850603
717 1 7.83131 11.4472 1.75159
718 1 8.30802 12.1712 0.0340345
719 1 7.90988 12.1902 2.55928
720 1 8.36878 11.5731 0.977182
721 1 4.51941 12.4306 1.571
722 1 4.90283 12.9871 0.0266939
723 1 4.43373 12.6695 2.51483
724 1 4.96606 12.3421 0.723833
725 1 5.53695 12.4616 1.75396
726 1 6.0852 12.8856 0.0914802
727 1 5.7541 12.9972 2.50691
728 1 6.03473 12.3677 0.913034
729 1 6.75738 12.566 1.55442
730 1 7.22263 13.3069 0.0890488
731 1 6.75093 13.1156 2.54777
732 1 7.17869 12.6649 0.715237
733 1 7.7955 12.5413 1.61343
734 1 8.26549 13.2477 0.0266721
735 1 7.74193 13.2142 2.3067
736 1 8.28279 12.6659 0.836451
737 1 5.00636 9.52519 3.15496
738 1 5.03638 8.93625 3.92751
739 1 6.16773 9.71914 3.15446
740 1 6.16514 9.07691 3.94811
741 1 7.83547 9.76998 2.43995
742 1 7.27076 9.26137 3.95075
743 1 8.41076 9.83702 3.23924
744 1 8.95889 9.2481 4.86396
745 1 4.97721 10.4989 3.17789
746 1 5.03202 9.99989 4.02616
747 1 6.10005 10.7927 3.31615
748 1 6.10466 10.1297 3.96747
749 1 7.21302 10.8782 3.17911
750 1 7.35432 10.4016 3.96454
751 1 8.42983 10.8954 3.19641
752 1 8.49985 10.5198 4.06497
753 1 4.96878 11.6413 3.3
754 1 4.90465 11.0646 4.03404
755 1 6.12278 11.8581 3.23896
756 1 6.07829 11.3363 4.06602
757 1 7.32928 11.9674 3.20465
758 1 7.20163 11.4201 3.98599
759 1 8.35722 11.9371 3.45861
760 1 8.25862 11.5632 4.20138
761 1 5.04668 12.9218 3.1556
762 1 5.09523 12.3457 3.93479
763 1 6.22206 12.9984 3.29391
764 1 6.15759 12.471 4.20133
765 1 7.33287 13.0341 3.49773
766 1 7.20653 12.4254 4.22332
767 1 8.23017 13.1888 3.23935
768 1 8.54149 12.773 3.97942
769 1 8.96254 9.41824 1.55512
770 1 9.61252 9.39522 0.722135
771 1 9.01214 9.85553 2.54406
772 1 9.59331 10.0138 12.9483
773 1 10.0798 9.24903 1.66906
774 1 10.5619 9.72097 0.0124688
775 1 10.246 9.88766 2.36996
776 1 10.7411 9.21869 0.795029
777 1 11.1393 8.88072 1.69393
778 1 11.7948 9.54002 12.7418
779 1 11.198 9.57758 2.39754
780 1 11.7572 9.14505 0.93319
781 1 12.3593 8.79021 1.60686
782 1 12.8517 9.45141 12.883
783 1 12.3048 9.35078 2.29086
784 1 12.854 8.91793 0.814028
785 1 8.97456 10.4617 1.71618
786 1 9.50049 11.0454 12.877
787 1 8.98441 11.0101 2.46166
788 1 9.55366 10.4857 0.902341
789 1 10.1702 10.2707 1.44165
790 1 10.5572 10.8162 12.8184
791 1 10.0791 10.9348 2.41674
792 1 10.7466 10.3592 0.787269
793 1 11.2773 10.1311 1.59334
794 1 11.8218 10.5941 12.877
795 1 11.2223 10.7681 2.35347
796 1 11.8352 10.0697 0.736492
797 1 12.3449 10.1308 1.69858
798 1 12.9567 10.5855 12.8482
799 1 12.3571 10.5935 2.42969
800 1 12.7124 9.95579 0.803322
801 1 9.02246 11.5761 1.49921
802 1 9.42246 12.1517 12.929
803 1 8.788 12.0286 2.43557
804 1 9.63385 11.5035 0.664369
805 1 10.0099 11.5435 1.71646
806 1 10.6883 11.9645 12.8951
807 1 9.99075 12.1408 2.51164
808 1 10.5796 11.3942 0.766659
809 1 11.2279 11.4513 1.55771
810 1 11.6857 11.7883 12.9364
811 1 11.087 11.8847 2.42527
812 1 11.6519 11.1703 0.771523
813 1 12.3042 11.2038 1.4455
814 1 12.7667 11.6809 0.0592577
815 1 12.2971 11.671 2.36914
816 1 12.9604 11.0724 0.802268
817 1 8.97023 12.6779 1.74465
818 1 9.44025 13.2106 0.100148
819 1 8.93306 13.2407 2.52384
820 1 9.35701 12.6839 0.829054
821 1 10.0462 12.7697 1.69786
822 1 10.627 13.1188 12.8436
823 1 10.082 13.2972 2.4372
824 1 10.5731 12.5628 0.742376
825 1 11.1551 12.4135 1.48914
826 1 11.7433 12.934 12.9407
827 1 11.1696 12.9285 2.29377
828 1 11.7778 12.4611 0.644112
829 1 12.2202 12.2897 1.51119
830 1 12.9088 12.8307 0.0506268
831 1 12.2819 12.7806 2.39344
832 1 12.8446 12.2861 0.820841
833 1 9.58799 9.95853 3.2521
834 1 10.1402 9.07506 4.72527
835 1 10.5824 9.91204 3.26858
836 1 10.6843 9.25419 3.93712
837 1 11.8231 9.66527 3.08513
838 1 11.7089 9.09985 4.00208
839 1 12.7492 9.32088 3.28221
840 1 12.9236 8.83274 4.17624
841 1 9.50585 11.0262 3.3731
842 1 9.50968 10.3353 4.12629
843 1 10.5943 10.9842 3.2311
844 1 10.7149 10.3292 4.13451
845 1 11.6511 10.6718 3.15417
846 1 11.7285 10.0998 4.01857
847 1 12.7869 10.4221 3.16249
848 1 12.8233 9.8519 4.12508
849 1 9.37487 12.0823 3.16197
850 1 9.55789 11.5337 4.14147
851 1 10.6811 12.0555 3.19797
852 1 10.5662 11.4065 4.01487
853 1 11.8468 11.7715 3.19369
854 1 11.7218 11.1536 4.06274
855 1 12.8136 11.5926 3.26696
856 1 12.8444 10.9636 3.85551
857 1 9.50635 13.2152 3.27389
858 1 9.57803 12.6019 4.11664
859 1 10.7373 13.1635 3.25164
860 1 10.5279 12.4532 4.16249
861 1 11.7549 13.0376 3.22103
862 1 11.7216 12.4083 3.8626
863 1 12.8337 12.715 3.20483
864 1 13.0239 12.0898 3.96891
865 1 13.3246 13.0975 4.82607
866 1 0.21555 0.343405 5.56024
867 1 1.17112 13.1893 4.76257
868 1 1.31111 0.157309 5.74353
869 1 2.39048 13.0237 4.80681
870 1 2.30424 0.058105 5.64137
871 1 3.42107 13.0822 4.89804
872 1 3.45086 0.243207 5.6186
873 1 0.167892 0.906127 4.80226
874 1 13.4328 1.55036 5.62211
875 1 1.23076 0.82721 4.98223
876 1 1.1548 1.5175 5.57453
877 1 2.3759 0.746492 4.85014
878 1 2.25921 1.29873 5.71519
879 1 3.41057 0.837944 4.83417
880 1 3.38926 1.41817 5.58657
881 1 13.3184 2.03624 4.82673
882 1 0.161357 2.67563 5.52913
883 1 1.06274 1.99206 4.83819
884 1 1.21544 2.59665 5.76949
885 1 2.26003 1.7953 4.78683
886 1 2.3159 2.31235 5.60807
887 1 3.49309 2.55446 5.75709
888 1 3.94546 2.54064 6.60521
889 1 0.0319907 3.1908 4.9536
890 1 0.0963602 3.83275 5.76977
891 1 1.24134 3.01038 4.80824
892 1 1.30308 3.5464 5.66074
893 1 2.23116 2.80724 4.86577
894 1 2.30421 3.57608 5.56364
895 1 3.39908 3.04517 4.88271
896 1 3.50724 3.64429 5.71963
897 1 13.3486 13.2273 8.15784
898 1 0.636872 0.389778 6.44668
899 1 0.524019 13.2447 7.22663
900 1 1.11488 13.0912 8.13149
901 1 1.78379 0.21599 6.51128
902 1 1.69173 13.0675 7.16926
903 1 2.13518 13.1152 8.07108
904 1 2.8009 0.154042 6.49304
905 1 2.82902 13.1916 7.37057
906 1 3.38789 13.0938 8.03152
907 1 3.78556 0.569602 6.39668
908 1 3.94721 0.0479916 7.24943
909 1 13.3825 0.907315 8.08197
910 1 0.501496 1.4101 6.43288
911 1 0.526221 0.823126 7.39597
912 1 1.20513 0.753848 8.18581
913 1 1.56935 1.20927 6.50978
914 1 1.735 0.722831 7.36525
915 1 2.37351 0.800578 8.0481
916 1 2.70829 1.2556 6.52276
917 1 2.86446 0.835443 7.27147
918 1 3.33441 0.268793 8.69814
919 1 3.96503 1.9645 7.42493
920 1 4.08302 1.02967 7.46978
921 1 0.0755752 2.0308 8.00557
922 1 0.587258 2.43717 6.48351
923 1 0.655051 1.84771 7.29972
924 1 1.20376 2.01955 7.97655
925 1 1.73506 2.32111 6.54334
926 1 1.80647 1.78586 7.27516
927 1 2.3603 1.89313 8.20459
928 1 2.74985 2.49596 6.41651
929 1 2.88694 1.91247 7.17334
930 1 3.49254 1.55907 8.74743
931 1 3.96137 3.18123 7.3819
932 1 3.33535 2.21299 8.11866
933 1 0.173162 3.21698 8.10245
934 1 0.628903 3.66424 6.38183
935 1 0.602887 3.01949 7.10915
936 1 1.14166 3.08436 8.01278
937 1 1.83043 3.52906 6.5162
938 1 1.75523 2.90245 7.23448
939 1 2.30274 3.06812 7.99434
940 1 2.88103 3.39204 6.52087
941 1 2.99604 2.94014 7.46354
942 1 3.46037 3.50684 8.77515
943 1 4.64615 3.73263 5.78396
944 1 3.86356 1.55208 6.49097
945 1 4.50832 13.282 4.8495
946 1 4.58598 0.334729 5.72402
947 1 5.66444 0.170029 4.85892
948 1 5.58957 0.497806 5.67902
949 1 6.74401 0.151904 4.96077
950 1 6.72638 0.766066 5.55175
951 1 7.76439 0.173395 4.88806
952 1 7.92796 0.846443 5.72472
953 1 4.03215 0.905959 4.02296
954 1 3.98269 3.02983 4.09411
955 1 5.47592 1.23942 4.85464
956 1 5.71087 1.64484 5.66909
957 1 6.64681 1.39104 4.80677
958 1 6.81875 1.96698 5.57284
959 1 7.83992 1.27058 4.94812
960 1 7.75977 2.01811 5.48101
961 1 4.51328 1.48245 5.64391
962 1 5.0402 3.76304 6.61671
963 1 5.74382 2.33344 4.9172
964 1 5.023 2.70238 6.53156
965 1 6.72928 2.57718 4.69957
966 1 6.73729 2.94183 5.72121
967 1 7.86702 2.49692 4.75421
968 1 7.87495 3.08271 5.54018
969 1 5.68443 3.32391 4.80759
970 1 3.99079 3.73971 6.54617
971 1 5.017 4.47438 3.98616
972 1 5.61524 4.46535 4.77075
973 1 6.77977 3.55192 4.80188
974 1 6.71952 3.97984 5.73095
975 1 7.90835 4.29174 5.72933
976 1 8.46847 4.16128 6.44016
977 1 4.58676 13.3503 8.06945
978 1 4.88238 0.502662 6.54829
979 1 5.11345 13.332 7.33443
980 1 5.52308 0.089012 8.19196
981 1 5.98219 0.509565 6.38562
982 1 6.17863 0.0853804 7.33486
983 1 6.66903 13.1191 9.04017
984 1 7.22082 0.890256 6.39335
985 1 6.64459 0.124825 8.16111
986 1 7.78723 0.395832 8.12111
987 1 8.40755 0.893449 6.55828
988 1 8.30906 0.329153 7.33051
989 1 4.58896 1.04809 8.29197
990 1 5.00554 1.60762 6.36773
991 1 5.12087 1.04577 7.24785