data.lammps (converted from cfg to data.lammps)
    
2298  atoms
1  atom types
0.0   13.4375  xlo xhi
0.0   13.4375  ylo yhi
0.0   12.952  zlo zhi
0.0  0.0 0.0 xy xz yz
    
    
    
Atoms
  
1 1 13.3935 0.832363 2.48379
2 1 0.513737 1.04645 0.0269659
3 1 0.0660132 1.36415 1.57096
4 1 0.549314 0.342835 0.846652
5 1 1.17788 0.345858 1.57609
6 1 2.29828 0.83691 12.2347
7 1 1.14159 0.839059 2.34724
8 1 1.64935 0.41606 0.718473
9 1 2.23775 0.306804 1.48552
10 1 2.69619 1.49881 0.846477
11 1 2.27947 0.807594 2.46193
12 1 2.7781 0.297012 0.724987
13 1 3.22926 0.0835142 1.66722
14 1 3.98918 0.685014 0.0223444
15 1 3.28421 0.754027 2.51211
16 1 3.89921 0.111985 0.840789
17 1 12.8924 1.58955 0.864273
18 1 13.4254 1.9875 12.2259
19 1 13.3576 1.90607 2.41353
20 1 0.617652 1.68872 0.596453
21 1 1.11481 1.48744 1.61684
22 1 1.63333 2.07634 0.00280998
23 1 0.976968 2.05189 2.286
24 1 1.61829 1.46246 0.79885
25 1 2.20247 1.36189 1.57022
26 1 2.68626 1.91914 12.8961
27 1 2.20376 1.96202 2.42052
28 1 3.4153 1.88363 2.43147
29 1 3.82713 1.26249 0.848642
30 1 3.8646 1.74921 0.024496
31 1 5.0715 1.72817 3.30916
32 1 5.10376 1.1086 0.714932
33 1 13.25 2.53578 1.47374
34 1 0.575808 2.98734 0.00714685
35 1 13.4149 2.92053 2.20855
36 1 0.500851 2.63409 0.868119
37 1 1.75632 2.65376 0.804274
38 1 1.52604 3.34256 0.00685027
39 1 1.11016 3.10369 2.48189
40 1 2.16168 2.52843 1.6051
41 1 2.88671 2.49279 0.822347
42 1 2.64492 3.02893 12.947
43 1 2.28146 3.07465 2.35267
44 1 3.3203 2.50757 1.64485
45 1 3.26499 1.35759 1.63541
46 1 3.89384 2.95247 12.8986
47 1 2.75494 3.10999 3.27288
48 1 3.96264 2.44947 0.723328
49 1 0.209938 3.80881 1.64698
50 1 0.576924 3.77802 0.679165
51 1 13.3232 4.2142 2.5013
52 1 1.03982 3.6224 1.58354
53 1 1.10547 2.57948 1.49317
54 1 1.54574 4.4722 12.7655
55 1 1.22886 4.27761 2.43679
56 1 1.58915 3.88388 0.784012
57 1 2.12419 3.6055 1.61813
58 1 2.78026 4.20126 12.939
59 1 2.34122 4.27392 2.28306
60 1 2.65991 3.71382 0.828017
61 1 3.29263 3.62142 1.58988
62 1 3.80347 4.06097 0.0486635
63 1 3.46735 4.18026 2.43441
64 1 3.75148 3.49081 0.811901
65 1 0.637146 0.926651 3.11362
66 1 0.431402 0.392418 3.98948
67 1 1.62207 1.00197 3.11966
68 1 1.64052 0.500892 4.04133
69 1 2.74027 0.888704 3.3222
70 1 2.69644 0.186323 4.01371
71 1 3.95108 0.798408 3.2522
72 1 3.82787 0.147982 4.06479
73 1 0.501129 1.98719 3.1778
74 1 0.569645 1.51614 4.09606
75 1 1.66929 2.10652 3.09732
76 1 1.69853 1.62752 3.98694
77 1 2.80653 2.06919 3.16517
78 1 2.69976 1.48756 3.94848
79 1 3.71285 2.3064 4.00771
80 1 4.49295 1.6935 2.37457
81 1 0.395337 3.22433 3.10222
82 1 0.591031 2.64998 3.85341
83 1 1.70448 3.22939 3.13311
84 1 1.55578 2.62064 3.97104
85 1 2.60583 2.65181 4.15991
86 1 3.3128 2.3897 4.81009
87 1 3.37711 3.07883 2.47422
88 1 4.45692 2.23565 4.85981
89 1 0.565959 4.29984 3.0016
90 1 0.492373 3.76962 3.92187
91 1 1.69095 4.3226 3.24277
92 1 1.58517 3.7533 3.95855
93 1 2.70301 4.08552 3.14038
94 1 2.7791 3.69604 4.22894
95 1 3.98853 4.13548 3.28626
96 1 3.86935 3.04882 3.34599
97 1 4.52707 0.0596562 1.65501
98 1 5.00391 0.372689 0.0555519
99 1 4.30226 0.653963 2.30195
100 1 5.03034 13.3287 0.797012
101 1 5.59656 13.289 1.61238
102 1 6.09041 0.457688 12.9437
103 1 5.5214 0.562151 2.4253
104 1 6.15687 13.1456 0.787939
105 1 6.71622 13.3054 1.58356
106 1 7.11913 0.24437 0.0444058
107 1 6.67736 0.244909 2.53917
108 1 7.75826 12.9523 1.60892
109 1 7.29705 13.1577 0.81161
110 1 7.84943 0.331209 12.1909
111 1 7.81645 0.0905248 2.47458
112 1 8.37882 13.0113 0.90439
113 1 4.49033 1.14218 1.5231
114 1 5.10216 1.61249 0.0678382
115 1 3.90326 1.84848 3.23957
116 1 5.62201 0.935486 1.55745
117 1 6.22432 0.832745 0.874875
118 1 6.14678 1.98234 0.823175
119 1 5.47821 1.66484 2.40168
120 1 6.18353 1.46919 0.0153295
121 1 6.82098 0.912175 1.77444
122 1 6.73813 1.38871 12.2221
123 1 6.5536 1.34534 2.51353
124 1 7.22929 0.863507 0.801716
125 1 7.83186 0.672267 1.78302
126 1 8.98226 1.39937 12.0284
127 1 7.96297 1.34973 2.39018
128 1 8.43268 1.43035 0.0202388
129 1 4.41328 2.23257 1.476
130 1 4.97479 2.7578 12.8241
131 1 4.29488 2.74861 2.37961
132 1 5.04252 2.28849 0.683847
133 1 5.53019 2.10005 1.6058
134 1 6.22895 2.61518 0.00347234
135 1 5.44557 2.78323 2.42959
136 1 6.66401 2.04452 1.8175
137 1 7.75747 2.36487 2.50207
138 1 7.8305 2.39995 12.1277
139 1 6.64612 2.5635 2.53955
140 1 7.26122 1.38916 12.9465
141 1 7.2544 1.88406 0.867114
142 1 8.34301 2.42484 0.0215652
143 1 7.8767 3.00976 1.64589
144 1 7.7869 1.89011 1.61434
145 1 4.45964 3.26945 1.49966
146 1 4.95896 3.84822 12.8854
147 1 4.44451 3.87208 2.19676
148 1 5.0132 3.42245 0.820411
149 1 5.55443 3.17816 1.67111
150 1 6.21389 3.66313 0.0233813
151 1 5.56061 3.91586 2.41609
152 1 6.10443 3.03571 0.827652
153 1 7.25582 3.64215 0.0518918
154 1 6.83832 3.71485 12.1812
155 1 6.68805 3.07289 1.60864
156 1 7.25309 3.09425 0.897325
157 1 7.68372 3.45207 2.38834
158 1 8.33836 3.53015 12.9346
159 1 8.27074 3.51422 3.18355
160 1 8.44137 3.03956 0.80352
161 1 4.99211 0.548355 3.12196
162 1 5.00279 0.0478345 4.15087
163 1 6.12253 0.414691 3.2756
164 1 6.16355 13.3169 3.928
165 1 7.29404 0.424187 3.25651
166 1 7.19593 13.2252 3.90652
167 1 8.45088 0.274515 3.19523
168 1 8.34173 13.204 4.084
169 1 5.02677 1.06569 3.98146
170 1 4.46199 1.1126 4.89944
171 1 6.23272 1.66157 3.24734
172 1 6.10417 1.03844 4.0125
173 1 7.39354 1.38038 3.19901
174 1 7.12546 0.959034 4.1661
175 1 8.50142 1.17347 3.32439
176 1 8.31113 0.763134 4.23694
177 1 4.83472 2.786 3.17034
178 1 4.99468 2.19449 4.02328
179 1 5.97801 2.67445 3.19865
180 1 6.20709 2.08479 4.14145
181 1 7.19156 2.54244 3.35338
182 1 7.29643 1.92713 4.07171
183 1 8.38863 2.50486 3.24765
184 1 8.27534 1.89489 3.87651
185 1 5.01662 3.21453 4.1133
186 1 4.458 3.32289 4.7883
187 1 6.64824 3.62345 2.47879
188 1 6.09247 3.14467 4.03166
189 1 7.1273 3.71019 3.28033
190 1 7.28896 3.08607 3.98713
191 1 8.34978 4.63729 3.15235
192 1 7.73562 2.93154 4.91295
193 1 8.97926 13.0773 1.60988
194 1 9.0079 0.170826 12.2596
195 1 9.01975 0.254989 2.33179
196 1 9.60965 13.2293 0.756914
197 1 10.0828 13.2103 1.69189
198 1 10.3397 0.457156 12.934
199 1 10.0087 0.451715 2.39459
200 1 10.6508 13.2939 0.808321
201 1 11.173 0.0645521 1.57995
202 1 11.135 0.587606 12.2389
203 1 11.2116 0.617825 2.41386
204 1 11.7102 0.0880506 0.808667
205 1 12.3103 0.27565 1.53701
206 1 11.7494 0.61995 12.944
207 1 12.2828 0.753591 2.37319
208 1 12.72 0.416341 0.623026
209 1 8.36709 0.742641 0.795526
210 1 9.53904 1.98776 0.866993
211 1 8.84079 0.825025 1.61715
212 1 9.32764 0.517072 0.0967571
213 1 10.2933 0.876343 1.60762
214 1 10.0315 2.59699 11.96
215 1 9.53682 1.54542 3.32212
216 1 10.6501 1.05484 0.642871
217 1 11.2407 1.23606 1.6781
218 1 11.7495 2.39994 0.673711
219 1 11.24 1.64965 2.60175
220 1 11.7485 1.18977 0.865767
221 1 12.3464 1.34645 1.64178
222 1 12.8843 0.91346 12.9318
223 1 12.3532 1.90146 2.36674
224 1 13.3541 0.355652 1.495
225 1 8.9033 1.80514 1.6089
226 1 8.91007 2.60141 12.2012
227 1 8.98512 2.59084 2.35479
228 1 10.112 2.00387 1.69583
229 1 9.94926 1.43701 2.38354
230 1 10.0874 1.99137 11.3397
231 1 10.0547 2.70754 2.25313
232 1 10.6494 2.13512 0.890292
233 1 11.2467 2.22192 1.62182
234 1 12.3004 2.58777 11.5501
235 1 11.1416 2.74981 2.39933
236 1 11.2713 2.68278 12.1861
237 1 12.2393 2.45733 1.45517
238 1 12.2139 2.83156 12.4254
239 1 12.2947 2.94245 2.4443
240 1 13.0288 2.03852 0.0738584
241 1 8.94006 3.02195 1.5707
242 1 9.59874 4.09524 0.728576
243 1 8.95953 3.5541 2.54627
244 1 9.60995 2.95941 0.811543
245 1 10.0391 3.36185 1.47747
246 1 10.6846 3.81981 0.0336417
247 1 10.0865 3.70899 2.4461
248 1 10.1201 3.31668 11.3688
249 1 11.1423 3.46327 1.71979
250 1 12.3436 3.94877 12.1044
251 1 11.2389 4.45006 1.56011
252 1 11.9029 3.3644 0.875856
253 1 12.3692 3.60399 1.77204
254 1 13.0104 3.57366 0.900518
255 1 12.2035 4.57802 1.70965
256 1 12.8682 2.92374 0.351068
257 1 9.49421 0.29408 3.35804
258 1 9.42819 13.1238 4.10498
259 1 10.5874 0.47952 3.15674
260 1 10.6726 0.00426194 4.05067
261 1 11.7362 0.675124 3.22623
262 1 11.7994 0.0948446 3.98046
263 1 12.8022 0.730888 3.34778
264 1 12.8868 0.122419 3.96555
265 1 8.90689 1.48115 2.55239
266 1 9.49229 0.754584 4.0751
267 1 10.5502 1.76688 3.17071
268 1 10.635 1.15759 3.87916
269 1 11.7829 1.79056 3.33386
270 1 11.6831 1.11161 4.08121
271 1 12.8907 2.17038 3.28233
272 1 12.876 1.44033 3.82381
273 1 9.49961 2.55369 3.26147
274 1 9.51434 1.86706 4.13908
275 1 10.5516 2.78065 3.24374
276 1 10.6686 2.14026 4.15284
277 1 11.622 2.82302 3.20909
278 1 11.6349 2.31372 4.13739
279 1 12.8218 3.20264 3.153
280 1 12.7958 2.68558 4.06725
281 1 9.43439 3.68607 3.31013
282 1 9.59757 3.01066 4.03987
283 1 11.3369 3.85625 2.54948
284 1 10.7087 3.33155 4.04734
285 1 11.7446 3.98415 3.29661
286 1 11.7803 3.34815 4.04698
287 1 12.5542 4.13364 2.67967
288 1 12.8493 3.75546 3.92944
289 1 0.0313247 4.82119 1.52939
290 1 0.530077 5.46783 12.9134
291 1 13.4038 5.35264 2.46499
292 1 0.639241 4.96989 0.719051
293 1 0.992573 4.83513 1.62311
294 1 1.73289 5.59032 12.9487
295 1 1.05994 5.43621 2.36504
296 1 1.62324 4.94358 0.747836
297 1 2.04349 4.77473 1.57106
298 1 2.8507 5.34856 0.0734516
299 1 2.15193 5.27746 2.52226
300 1 2.75836 4.73896 0.742454
301 1 3.24538 4.67405 1.52265
302 1 3.95611 5.09397 12.7995
303 1 3.27535 5.30777 2.32372
304 1 3.93939 4.51953 0.927697
305 1 13.4103 5.93298 1.66607
306 1 0.539084 6.50104 12.9108
307 1 13.3951 6.44049 2.567
308 1 0.449783 6.02748 0.895654
309 1 1.10053 5.95713 1.52082
310 1 1.638 6.59428 12.8821
311 1 1.20324 6.40145 2.31123
312 1 1.69041 6.015 0.791448
313 1 2.13981 5.94197 1.64853
314 1 2.81412 6.46967 12.8685
315 1 2.25636 6.49735 2.47609
316 1 2.80267 5.90549 0.888174
317 1 3.31233 5.81013 1.63134
318 1 3.93986 6.24738 0.142427
319 1 3.3178 6.45576 2.41667
320 1 3.88114 5.57707 0.697189
321 1 0.0313367 6.99376 1.65801
322 1 0.443992 7.60454 12.909
323 1 13.3654 7.59002 2.4569
324 1 0.727676 7.0954 0.718776
325 1 1.13702 7.09559 1.79111
326 1 1.78086 7.67691 12.8955
327 1 1.05901 7.64853 2.44659
328 1 1.70455 7.07857 0.834149
329 1 2.14707 7.03058 1.66599
330 1 2.88547 7.65804 0.0585531
331 1 2.25479 7.64703 2.52279
332 1 2.71232 6.97723 0.73292
333 1 3.25901 7.00806 1.50826
334 1 3.87953 7.41547 0.0328209
335 1 3.34494 7.43533 2.49244
336 1 3.90074 6.84231 0.879649
337 1 0.0479639 8.14794 1.67946
338 1 0.678599 8.77524 12.9285
339 1 0.0488288 8.66254 2.44921
340 1 0.613427 8.20283 0.762554
341 1 1.10868 8.13844 1.54153
342 1 1.67359 8.80729 0.116547
343 1 1.12829 8.71881 2.46247
344 1 1.73101 8.23486 0.807209
345 1 2.25313 8.08266 1.57884
346 1 2.91051 8.69163 0.0992703
347 1 2.14854 8.69234 2.40652
348 1 2.98556 8.11977 0.99134
349 1 3.42429 7.96844 1.71062
350 1 3.89314 8.41432 12.9381
351 1 2.85034 9.76994 3.12571
352 1 4.03531 7.95022 0.87001
353 1 0.494874 5.26445 3.29022
354 1 0.495658 4.75752 4.04874
355 1 1.58782 5.38383 3.31784
356 1 1.59664 4.82056 4.06167
357 1 2.74817 5.35621 3.25941
358 1 2.8439 4.59936 3.81329
359 1 3.79627 5.12118 3.0836
360 1 3.8849 4.66133 4.06409
361 1 0.493774 6.45847 3.18525
362 1 0.462638 6.05861 4.06291
363 1 1.71141 6.52998 3.24775
364 1 1.61376 6.02619 4.00927
365 1 2.85148 6.53914 3.26407
366 1 2.685 5.85922 4.00557
367 1 3.89001 6.11412 3.24025
368 1 3.83509 5.7247 4.00472
369 1 0.500567 7.59058 3.23007
370 1 0.479054 7.15176 3.98483
371 1 1.57248 7.55933 3.3229
372 1 1.5263 7.03393 4.06425
373 1 2.67555 7.68088 3.31711
374 1 2.58855 7.04054 4.06382
375 1 5.00974 7.18206 3.33232
376 1 3.34308 6.88431 4.78304
377 1 0.509304 8.74675 3.35378
378 1 0.490978 8.2383 4.10678
379 1 1.61 8.68291 3.30293
380 1 1.65172 8.14622 4.16705
381 1 3.86084 8.52983 3.30075
382 1 2.84755 8.19178 4.0983
383 1 3.79088 7.41751 3.36392
384 1 3.85245 8.07377 4.17649
385 1 4.48862 4.64435 1.72394
386 1 5.04652 5.0092 12.9364
387 1 4.58311 5.15121 2.46159
388 1 4.94677 4.32807 0.842329
389 1 5.60423 4.99735 2.5156
390 1 6.11594 4.23311 0.74904
391 1 6.04886 4.96033 3.35029
392 1 5.53477 4.38069 1.5573
393 1 6.64183 4.20445 1.5457
394 1 6.64652 4.88378 12.2642
395 1 6.59124 4.72237 2.39477
396 1 7.3466 4.15965 0.984778
397 1 7.92114 4.14175 1.60649
398 1 8.22767 4.5467 0.0673349
399 1 7.79324 4.61167 2.3947
400 1 8.60413 4.12512 0.821883
401 1 4.34737 5.73177 1.57897
402 1 4.96504 6.08494 0.0667321
403 1 4.46407 6.18984 2.48866
404 1 5.01168 5.44219 0.767613
405 1 5.59665 5.4149 1.52271
406 1 6.12687 6.04198 12.9484
407 1 6.07122 6.10366 3.27152
408 1 6.23614 5.52838 0.859925
409 1 6.78707 5.27183 1.71382
410 1 7.19606 5.34791 0.874804
411 1 6.50215 5.9 2.49882
412 1 7.16403 4.69422 0.0545528
413 1 7.86514 5.29438 1.7235
414 1 8.44868 5.5665 0.0219847
415 1 7.71221 5.77291 2.52195
416 1 8.26791 5.14426 0.822282
417 1 4.52771 6.73961 1.60642
418 1 4.93038 7.31974 0.0352947
419 1 4.38259 7.287 2.59409
420 1 5.0927 6.57352 0.80484
421 1 5.47031 6.05214 2.32032
422 1 6.1827 7.16721 12.83
423 1 5.57598 6.64358 1.61838
424 1 6.23229 6.59689 0.792152
425 1 6.65141 6.40957 1.76509
426 1 7.28288 6.99253 0.00140604
427 1 6.67994 7.07647 2.55262
428 1 7.28515 6.49527 0.909561
429 1 7.97706 6.38735 1.51759
430 1 8.39267 6.33843 0.788869
431 1 7.74673 6.82961 2.40849
432 1 9.07309 6.39641 1.58737
433 1 4.49156 7.72922 1.8233
434 1 5.12246 8.42617 12.8575
435 1 4.535 8.38024 2.60746
436 1 5.0288 7.91318 0.79002
437 1 5.55888 7.26322 2.59786
438 1 6.23241 8.23955 0.0767352
439 1 5.49455 7.74595 1.74006
440 1 5.92533 7.57023 0.892792
441 1 6.64413 7.5677 1.63939
442 1 7.28849 8.12426 12.9357
443 1 6.65477 8.25397 2.39519
444 1 7.14123 7.64414 0.799487
445 1 7.73696 7.47535 1.63128
446 1 8.25057 7.57436 0.754806
447 1 7.9439 8.56384 1.80552
448 1 8.36185 6.86076 12.9494
449 1 4.92667 4.94821 3.28472
450 1 4.88833 3.83801 3.14938
451 1 6.18259 5.47626 4.14752
452 1 5.98895 3.77626 3.28581
453 1 7.13451 4.64775 3.09726
454 1 7.25367 4.25869 4.06737
455 1 8.33575 5.1966 3.92126
456 1 8.45013 2.9695 4.13627
457 1 4.9068 5.48293 4.01236
458 1 4.36806 5.0294 5.68949
459 1 6.24391 6.66731 4.26439
460 1 6.14666 7.17522 3.33698
461 1 7.14934 5.83439 3.35149
462 1 8.37664 5.7452 6.44449
463 1 8.32608 5.72702 3.1846
464 1 7.77816 5.78854 5.66322
465 1 4.92346 7.84014 4.17164
466 1 5.09088 6.10513 3.37131
467 1 6.22281 8.34297 3.37462
468 1 5.14645 6.65819 4.18919
469 1 5.9725 7.68743 4.10331
470 1 7.28822 6.99461 3.35079
471 1 8.38839 6.86816 3.20128
472 1 8.50513 6.34923 3.96817
473 1 5.0885 8.26217 3.3494
474 1 4.28912 7.85911 5.06415
475 1 5.59456 7.80102 4.94869
476 1 6.70115 7.58284 4.85419
477 1 7.28697 8.02598 3.25089
478 1 6.80971 8.58405 4.97313
479 1 7.82415 7.97388 2.42996
480 1 8.28161 7.43508 4.08173
481 1 8.93801 4.07035 1.74419
482 1 9.46634 4.68876 0.00049851
483 1 8.96167 4.74525 2.33431
484 1 10.0586 4.40002 1.58251
485 1 10.7272 3.18638 0.756401
486 1 10.1134 4.99014 12.1113
487 1 10.0455 4.6994 2.56245
488 1 10.5198 4.959 0.0783183
489 1 10.6463 4.36902 0.774965
490 1 12.2822 5.16353 12.2491
491 1 11.1625 4.904 2.51102
492 1 11.6586 4.99213 0.02488
493 1 11.831 4.42008 0.66242
494 1 12.8677 5.07657 12.7976
495 1 12.3607 5.18466 2.46729
496 1 12.8856 4.68161 0.903723
497 1 8.9666 5.20092 1.51028
498 1 9.42534 5.81388 12.8675
499 1 9.53469 5.8529 3.0688
500 1 9.53684 5.38392 0.860133
501 1 10.2033 5.31682 1.61063
502 1 10.5993 6.03637 12.8021
503 1 10.0919 5.92348 2.30906
504 1 10.6897 5.57468 0.811322
505 1 11.2449 5.56618 1.67376
506 1 11.2378 6.00664 12.0351
507 1 11.223 6.09958 2.38212
508 1 11.7575 5.60419 0.795481
509 1 12.3578 5.58162 1.62572
510 1 12.853 6.19118 0.0316381
511 1 12.2605 6.22103 2.41223
512 1 12.835 5.72171 0.819595
513 1 8.97106 5.76376 2.39532
514 1 9.51538 6.94754 12.875
515 1 8.85346 6.93078 2.39221
516 1 9.4874 6.40043 0.663699
517 1 10.0527 6.5941 1.54381
518 1 10.6436 7.00749 12.8863
519 1 10.1021 7.17232 2.37655
520 1 10.611 6.58322 0.798381
521 1 11.1929 6.70164 1.49667
522 1 11.7436 7.24168 12.9152
523 1 11.2196 7.19035 2.36485
524 1 12.9629 6.94592 0.771912
525 1 12.3422 6.71182 1.58453
526 1 12.352 7.45865 12.1489
527 1 12.2187 7.37426 2.31937
528 1 12.7838 7.39681 0.0890997
529 1 8.86704 7.4161 1.50342
530 1 10.0764 8.20232 12.1811
531 1 8.29561 8.01723 3.23512
532 1 9.49241 7.54474 0.75003
533 1 9.97054 7.64209 1.62198
534 1 10.6716 8.20573 12.8908
535 1 10.0889 8.25157 2.36988
536 1 10.6193 7.68938 0.758022
537 1 11.1482 7.83663 1.58371
538 1 11.8053 7.86473 0.963318
539 1 11.2905 8.32375 2.4678
540 1 11.7849 6.74497 0.725456
541 1 12.3884 8.00939 1.64075
542 1 13.0043 8.58846 0.0798949
543 1 12.3451 8.56264 2.6107
544 1 12.9542 7.95707 0.898031
545 1 9.43342 4.7443 3.3129
546 1 9.49046 4.15786 4.03688
547 1 10.5951 5.12547 3.15543
548 1 10.55 3.86527 3.27101
549 1 11.7477 5.12173 3.2441
550 1 11.662 4.39933 4.11398
551 1 12.8265 5.27786 3.34972
552 1 12.858 4.63966 3.87665
553 1 9.53663 6.44785 3.98565
554 1 9.38147 5.42217 4.03636
555 1 10.5051 6.15126 3.14525
556 1 10.4824 5.51208 4.00367
557 1 11.6326 6.13206 3.28736
558 1 11.6715 5.58016 4.07269
559 1 12.718 6.56584 3.21711
560 1 12.8349 5.93288 3.94979
561 1 9.50848 8.04248 3.29311
562 1 9.50366 7.0074 3.14121
563 1 10.7419 7.11657 3.11514
564 1 10.596 6.73033 4.04986
565 1 11.7388 7.30363 3.24679
566 1 11.6158 6.73176 4.07278
567 1 12.8602 7.5361 3.30272
568 1 12.8034 7.0087 4.0929
569 1 8.96061 8.06132 2.35239
570 1 9.0727 7.4934 4.85134
571 1 10.6831 8.27059 3.21935
572 1 10.5167 7.78733 3.97613
573 1 11.7264 8.41568 3.31171
574 1 11.7526 7.82054 4.04608
575 1 12.9172 8.6435 3.30323
576 1 12.79 8.23684 4.08032
577 1 13.4367 9.29434 1.56885
578 1 0.738897 9.8726 0.0487648
579 1 0.0889561 9.74075 2.51308
580 1 0.58269 9.29137 0.953092
581 1 1.17817 9.2819 1.71469
582 1 1.74067 9.87698 12.9281
583 1 1.1617 9.95093 2.48948
584 1 1.63159 9.38433 0.934489
585 1 2.36204 9.2484 1.6617
586 1 2.91618 9.73722 0.00104517
587 1 2.12353 9.86728 2.50432
588 1 2.8348 9.16111 0.846694
589 1 3.3954 9.18176 1.7962
590 1 4.02489 9.56473 0.12236
591 1 3.31117 8.60425 2.52052
592 1 3.89124 9.00489 0.882267
593 1 13.4163 10.4008 1.70982
594 1 0.676549 10.9072 12.9
595 1 0.075533 11.037 2.43461
596 1 0.601682 10.4233 0.886142
597 1 1.18962 10.4192 1.6494
598 1 1.76678 11.059 12.9312
599 1 1.2587 11.0164 2.40929
600 1 1.77899 10.3684 0.84497
601 1 2.38461 10.4323 1.67864
602 1 2.90382 10.9147 0.0177634
603 1 2.32606 10.9864 2.36678
604 1 2.80558 10.2932 0.798114
605 1 3.52314 10.348 1.54717
606 1 4.12535 10.7082 12.9423
607 1 3.54135 10.7813 2.3867
608 1 3.9092 10.2581 0.800295
609 1 0.0653873 11.5026 1.62856
610 1 0.586012 12.0274 12.8967
611 1 0.124036 12.1405 2.41683
612 1 0.645247 11.4133 0.713908
613 1 1.13317 11.5802 1.62404
614 1 2.36501 12.1258 12.2474
615 1 1.15592 12.1033 2.39164
616 1 1.67711 11.4824 0.791182
617 1 2.36845 11.5986 1.57704
618 1 2.87935 12.5875 0.780567
619 1 2.17184 12.1692 2.33907
620 1 2.86956 11.3725 0.897888
621 1 3.48809 11.3461 1.58912
622 1 3.94628 11.9283 0.0270597
623 1 3.33769 11.8918 2.45306
624 1 4.11939 11.4064 0.791603
625 1 13.4056 12.6575 1.58147
626 1 0.612464 13.2373 0.0905757
627 1 13.4322 13.3017 2.38901
628 1 0.582708 12.5744 0.804616
629 1 1.21009 12.6473 1.48027
630 1 1.67044 0.956045 12.8878
631 1 1.02919 13.1838 2.29315
632 1 1.7438 12.7157 0.701092
633 1 2.28347 12.708 1.61891
634 1 1.65511 13.2911 12.846
635 1 2.07666 13.1946 2.5228
636 1 2.8039 13.1201 0.0246232
637 1 3.3255 12.4707 1.65995
638 1 3.99033 12.9111 0.0330891
639 1 3.28392 13.0348 2.42658
640 1 3.92439 12.4837 0.937441
641 1 0.604761 9.88381 3.2311
642 1 0.551003 9.44897 4.14078
643 1 1.74459 9.93605 3.41413
644 1 1.68024 9.24595 3.99273
645 1 2.7284 8.7775 3.31964
646 1 2.80482 9.29167 4.10959
647 1 3.40588 9.81478 2.49862
648 1 4.08109 9.44554 3.21186
649 1 0.689639 10.9473 3.22602
650 1 0.61583 10.4962 4.19224
651 1 1.9123 10.9716 3.26516
652 1 1.67528 10.5479 4.12971
653 1 2.85294 10.9838 3.16983
654 1 2.80845 10.3443 4.02597
655 1 3.951 10.6105 3.31513
656 1 3.93535 10.1601 4.08527
657 1 0.689926 12.0905 3.24508
658 1 0.690632 11.5155 3.95368
659 1 1.75896 12.0751 3.1678
660 1 1.8014 11.6102 4.15627
661 1 2.77788 12.1038 3.23691
662 1 2.88265 11.4401 4.04074
663 1 3.95749 11.8339 3.29004
664 1 4.03898 11.2371 3.94443
665 1 0.563007 13.276 3.20809
666 1 0.537315 12.6938 4.02919
667 1 1.61914 13.2561 3.24639
668 1 1.63399 12.6695 3.93668
669 1 2.81424 13.1224 3.23414
670 1 2.82523 12.496 4.09716
671 1 3.99752 13.2 3.2617
672 1 3.89982 12.4781 3.96932
673 1 4.35379 8.92994 1.76463
674 1 5.11364 9.54931 0.185857
675 1 4.63481 9.58981 2.42015
676 1 4.94339 8.90201 0.920515
677 1 5.47559 8.74878 1.59688
678 1 6.40795 10.539 12.8961
679 1 5.56322 9.3736 2.519
680 1 6.22326 8.69256 0.870045
681 1 6.80026 8.69378 1.62445
682 1 7.40136 9.1287 0.122555
683 1 6.87766 9.20039 2.44057
684 1 7.40031 8.68892 0.92526
685 1 8.46305 8.59407 0.886939
686 1 8.55197 9.05141 0.0727093
687 1 7.94672 9.55581 1.72288
688 1 8.48621 8.01777 0.00149798
689 1 4.55336 9.98382 1.53104
690 1 5.02659 10.6676 12.8781
691 1 4.56077 10.6795 2.45443
692 1 5.21125 10.0249 0.997435
693 1 5.89537 9.7069 1.64006
694 1 5.66333 10.5076 12.2505
695 1 5.68894 10.3584 2.37621
696 1 6.18093 9.2394 0.154762
697 1 6.24106 9.9608 0.684131
698 1 7.41282 10.3372 0.100195
699 1 6.93965 10.3526 2.55255
700 1 6.84951 9.8362 1.65016
701 1 7.26826 9.74363 0.878306
702 1 8.43252 10.1183 12.9515
703 1 7.89277 10.3188 2.55596
704 1 8.38218 9.70617 0.914007
705 1 4.59982 11.1265 1.62039
706 1 5.02388 11.7446 12.8158
707 1 4.44703 11.8172 2.29881
708 1 5.16384 11.2605 0.819498
709 1 5.70176 11.0444 1.84348
710 1 6.17868 11.5666 12.9215
711 1 5.54476 11.7329 2.37965
712 1 6.06862 10.9459 0.936112
713 1 6.71485 10.8767 1.587
714 1 7.40932 11.4345 0.0445642
715 1 6.74135 11.3465 2.54845
716 1 7.26415 10.9733 0.822107
717 1 7.82437 10.7032 1.64594
718 1 8.43383 11.3405 0.0992627
719 1 7.88512 11.4189 2.38085
720 1 8.46206 10.7792 0.795941
721 1 4.58574 12.3849 1.65023
722 1 5.13572 12.6924 0.0162662
723 1 4.41539 12.8781 2.47075
724 1 5.09455 12.2495 0.813734
725 1 5.7221 12.1956 1.62744
726 1 6.19434 12.6376 12.9222
727 1 5.45522 12.7819 2.41507
728 1 6.29691 12.0355 0.804761
729 1 6.72875 11.9813 1.70731
730 1 7.4042 12.5992 12.8824
731 1 6.67138 12.6174 2.44343
732 1 7.28815 12.0526 0.728778
733 1 7.80833 11.7917 1.55951
734 1 8.43874 12.4662 0.0747716
735 1 7.90052 12.4273 2.42546
736 1 8.4708 11.8992 0.841999
737 1 5.08358 9.49199 3.40195
738 1 5.08381 8.9505 4.13796
739 1 6.31557 9.50995 3.21361
740 1 6.19865 8.94436 4.10183
741 1 7.9366 9.31062 2.63903
742 1 7.27697 8.71249 4.10613
743 1 8.5274 8.97784 3.36186
744 1 8.93418 8.48488 4.90135
745 1 5.08855 10.5889 3.18488
746 1 5.18325 10.2494 4.02981
747 1 6.14123 10.5998 3.19272
748 1 6.19075 9.92585 3.98033
749 1 7.34838 10.3373 3.41263
750 1 7.32912 9.80252 4.23581
751 1 8.5355 10.2155 3.36247
752 1 8.4044 9.75028 4.02222
753 1 5.033 11.6854 3.18821
754 1 5.22449 11.2788 4.17764
755 1 6.11163 11.5933 3.20798
756 1 6.23405 11.0636 4.1146
757 1 7.28382 11.4386 3.3212
758 1 7.306 10.9576 4.09927
759 1 8.38418 11.3875 3.26358
760 1 8.47779 10.9947 4.07159
761 1 5.0187 12.917 3.27451
762 1 5.03064 12.3226 4.02139
763 1 6.15314 12.5712 3.13289
764 1 6.19394 12.2601 4.08222
765 1 7.37254 12.5944 3.11449
766 1 7.20671 12.1264 3.94679
767 1 8.45638 12.5737 3.40766
768 1 8.54109 11.9888 4.11472
769 1 9.01011 8.63328 1.74369
770 1 9.54893 8.7731 0.800272
771 1 8.99854 9.40058 2.52643
772 1 9.64495 9.46219 12.9295
773 1 10.1014 8.82051 1.50348
774 1 10.1353 9.24857 12.1408
775 1 10.1968 9.35128 2.44349
776 1 10.7526 8.71693 0.769107
777 1 11.2242 8.83522 1.70099
778 1 11.8652 9.53607 12.918
779 1 11.3867 9.45014 2.43798
780 1 11.7734 9.07551 0.840669
781 1 12.3966 9.1096 1.6971
782 1 13.1423 9.81392 0.0917248
783 1 12.3736 9.6986 2.44575
784 1 12.776 9.01674 0.765891
785 1 9.06507 9.7873 1.68718
786 1 9.53536 10.5406 12.8464
787 1 8.9789 10.5141 2.27805
788 1 9.51199 9.90446 0.789536
789 1 10.2273 9.88902 1.62044
790 1 10.8503 10.0291 0.865256
791 1 10.0929 10.4313 2.43016
792 1 10.7175 9.31522 0.024843
793 1 11.2259 9.96817 1.64721
794 1 11.7273 10.7458 0.113546
795 1 11.2829 10.6302 2.49377
796 1 11.9467 10.2066 0.783441
797 1 12.3366 10.24 1.63882
798 1 12.7981 11.0116 0.0388446
799 1 12.4398 10.8348 2.34205
800 1 12.9268 10.2433 0.780758
801 1 8.95615 10.979 1.56985
802 1 9.50422 11.4789 12.8796
803 1 9.00554 11.546 2.51918
804 1 9.63688 10.8915 0.960501
805 1 10.2275 11.0977 1.67727
806 1 10.6757 11.7125 12.9497
807 1 10.1461 11.6335 2.33534
808 1 10.5993 11.0698 0.7954
809 1 11.2946 11.0538 1.70763
810 1 11.7789 11.9647 0.0599007
811 1 11.221 11.7915 2.42253
812 1 11.6644 11.3218 0.821688
813 1 12.3732 11.3454 1.46771
814 1 12.9991 12.02 0.105699
815 1 12.3487 11.8069 2.40227
816 1 12.9514 11.4184 0.890784
817 1 8.94217 12.0349 1.65119
818 1 9.45053 12.5742 0.0423085
819 1 8.92951 12.6666 2.52925
820 1 9.53975 12.0338 0.697254
821 1 9.95437 12.2113 1.5464
822 1 10.5891 12.8003 12.9347
823 1 10.1613 12.7221 2.48348
824 1 10.6971 12.2052 0.866191
825 1 11.2564 12.2472 1.65296
826 1 13.391 13.1308 12.167
827 1 11.2189 12.8916 2.36785
828 1 11.7945 12.426 0.870547
829 1 12.3855 12.5205 1.71346
830 1 11.6459 12.994 12.9078
831 1 12.2324 13.085 2.43188
832 1 12.8357 12.71 0.826124
833 1 9.58583 9.20144 3.18438
834 1 10.0387 8.65095 4.82814
835 1 10.7148 9.53369 3.24388
836 1 10.6559 8.82188 4.09949
837 1 11.7466 9.57629 3.33234
838 1 11.821 8.95648 4.12703
839 1 12.885 9.87138 3.16533
840 1 12.929 9.4955 4.0217
841 1 9.50879 10.3151 3.30873
842 1 9.70596 9.79783 4.06488
843 1 10.6639 10.5847 3.16722
844 1 10.7129 9.90559 4.07452
845 1 11.9278 10.7487 3.29154
846 1 11.7767 10.1647 4.0628
847 1 13.0145 10.8602 3.27157
848 1 13.0114 10.4017 4.11602
849 1 9.61378 11.4114 3.23595
850 1 9.59284 10.9334 4.04325
851 1 10.7085 11.6804 3.24328
852 1 10.6874 10.9059 4.02198
853 1 11.8029 11.8398 3.14177
854 1 11.8711 11.2953 4.07978
855 1 12.8487 11.9817 3.16345
856 1 13.0651 11.4558 4.06087
857 1 9.52328 12.5882 3.1477
858 1 9.54445 12.0272 3.97509
859 1 10.6836 12.8822 3.35917
860 1 10.6281 12.1832 3.91056
861 1 11.7412 12.9402 3.24558
862 1 11.8567 12.3112 4.08401
863 1 12.9129 13.0302 3.12347
864 1 12.9164 12.3713 3.984
865 1 13.3253 0.360624 4.87719
866 1 13.4316 1.05053 5.5991
867 1 1.05575 0.364537 4.73148
868 1 1.04644 0.929281 5.59696
869 1 2.17827 0.325132 4.78588
870 1 2.12244 0.864107 5.62731
871 1 3.25314 0.122897 4.87645
872 1 3.4793 0.758916 5.74013
873 1 13.3286 1.50698 4.61973
874 1 13.3406 2.00375 5.69582
875 1 1.11313 1.54504 4.7814
876 1 1.01747 1.96749 5.64719
877 1 2.31601 1.39723 4.88315
878 1 2.20036 2.01016 5.68137
879 1 3.28939 1.19684 4.84524
880 1 3.35026 1.81422 5.60915
881 1 0.119121 2.46039 4.77619
882 1 0.0731888 3.02607 5.63731
883 1 1.11583 2.67385 4.85991
884 1 1.08283 3.22692 5.69485
885 1 2.05853 2.48625 4.8814
886 1 2.2693 3.17929 5.51387
887 1 3.28726 2.96895 5.68062
888 1 3.85246 2.77599 6.37785
889 1 0.0227755 3.57552 4.77591
890 1 13.4373 4.18229 5.48541
891 1 1.15087 3.7389 4.91297
892 1 1.13507 4.39691 5.59714
893 1 2.12803 3.71492 4.81615
894 1 2.15533 4.35366 5.72275
895 1 3.37358 3.51305 4.96297
896 1 3.3973 4.13035 5.68488
897 1 13.4019 0.357251 7.99103
898 1 0.618355 0.920754 6.4585
899 1 0.618516 0.347742 7.33337
900 1 1.25032 0.416275 8.00598
901 1 1.70483 0.935242 6.54146
902 1 1.64882 0.302928 7.19541
903 1 2.22227 0.303529 8.12989
904 1 2.88202 0.778506 6.41175
905 1 2.73704 0.19146 7.28616
906 1 3.36949 0.260991 8.22041
907 1 3.98943 0.521942 6.4974
908 1 3.81954 0.120174 7.40922
909 1 13.4312 1.55073 8.0517
910 1 0.495816 2.16959 6.50008
911 1 0.632429 1.53681 7.19862
912 1 1.14102 1.44476 7.98655
913 1 1.60523 2.12712 6.399
914 1 1.83536 1.54828 7.20666
915 1 2.24222 1.43766 8.11856
916 1 2.75484 1.85216 6.36698
917 1 2.7482 1.26104 7.28509
918 1 3.20112 0.658584 8.95249
919 1 3.92722 2.44163 7.36654
920 1 3.81878 1.22903 7.31572
921 1 0.0148741 2.5026 8.16704
922 1 0.580062 3.23275 6.45728
923 1 0.518846 2.68204 7.21647
924 1 1.07366 2.60141 8.01558
925 1 1.77192 3.0931 6.3266
926 1 1.66829 2.56273 7.28752
927 1 2.25399 2.6205 8.09534
928 1 2.7785 2.97844 6.54988
929 1 2.79126 2.40523 7.20476
930 1 3.25001 1.89513 9.03766
931 1 3.35766 3.47886 7.9833
932 1 3.24803 2.32473 8.02379
933 1 0.0525397 3.65297 8.14645
934 1 0.563172 4.30918 6.43248
935 1 0.514031 3.75983 7.30911
936 1 1.20401 3.83767 8.07244
937 1 1.57672 4.23273 6.53489
938 1 1.68147 3.54835 7.20715
939 1 2.21087 3.62502 8.00027
940 1 2.71073 4.06514 6.36356
941 1 2.83504 3.67231 7.27072
942 1 3.2471 4.11656 8.76155
943 1 4.48356 3.87967 5.60445
944 1 3.89243 1.7213 6.61105
945 1 4.41805 0.0215598 4.83336
946 1 4.47603 0.547753 5.73411
947 1 5.68094 13.4008 4.8556
948 1 5.51065 0.359038 5.79656
949 1 6.8132 13.2172 4.78361
950 1 6.7653 0.300778 5.68225
951 1 7.81438 12.9167 4.85758
952 1 7.87663 0.13604 5.54567
953 1 3.90394 1.24819 4.12561
954 1 3.71082 3.50353 4.15021
955 1 5.57132 0.976359 4.88233
956 1 5.49161 1.50692 5.81542
957 1 6.50262 0.798827 5.05577
958 1 6.70265 2.55998 5.7705
959 1 7.74351 0.840829 4.91882
960 1 7.6798 1.35087 5.69283
961 1 4.34991 1.71049 5.67559
962 1 4.99923 3.27641 7.31827
963 1 5.50837 1.96525 4.79062
964 1 5.07929 2.69416 6.55661
965 1 6.69784 1.99918 4.93913
966 1 6.76977 3.53945 5.81314
967 1 7.75727 1.89016 4.98353
968 1 7.90699 2.45644 5.75062
969 1 5.60316 3.11782 4.9586
970 1 3.96918 3.92224 6.44828
971 1 4.99692 4.29855 4.10985
972 1 5.5456 4.44771 4.81857
973 1 6.67609 3.1702 4.83805
974 1 6.64513 4.17006 4.77658
975 1 7.78562 3.49712 5.66168
976 1 8.50837 3.6505 6.44065
977 1 4.45946 0.0364688 8.03663
978 1 4.97298 0.443858 6.61509
979 1 5.12743 13.3804 7.38463
980 1 5.66387 13.256 8.18498
981 1 6.14162 0.291508 6.4134
982 1 6.12648 13.2286 7.26471
983 1 6.70326 12.6475 8.91886
984 1 7.38035 0.19817 6.4381
985 1 6.71477 13.1537 8.16546
986 1 7.86474 13.017 8.11434
987 1 8.4201 0.0928905 6.47253
988 1 8.45936 13.0065 7.36352
989 1 4.53706 1.13017 8.07909
990 1 5.015 1.61207 6.52539
991 1 5.0812 1.10179 7.33433
992 1 5.60165 1.01221 8.24756
993 1 6.23755 1.33161 6.49363