data.lammps (converted from cfg to data.lammps)
    
2298  atoms
1  atom types
0.0   13.4375  xlo xhi
0.0   13.4375  ylo yhi
0.0   12.952  zlo zhi
0.0  0.0 0.0 xy xz yz
    
    
    
Atoms
  
1 1 0.00895386 0.66739 2.45302
2 1 0.407241 0.776447 12.8781
3 1 0.116624 1.3114 1.73478
4 1 0.580861 0.314421 0.766122
5 1 0.945209 0.387946 1.6441
6 1 2.29659 1.05884 12.2129
7 1 1.11778 1.01289 2.4453
8 1 1.69604 0.298373 0.871727
9 1 2.17444 0.494941 1.60758
10 1 2.84448 1.58697 0.786723
11 1 2.35258 0.956489 2.48825
12 1 2.70608 0.377685 0.825358
13 1 3.32945 0.320273 1.6456
14 1 3.87727 0.758419 0.15614
15 1 3.46927 1.03015 2.39344
16 1 3.85377 0.213174 0.927994
17 1 12.9931 1.0467 0.967397
18 1 0.544357 1.98128 12.8508
19 1 0.0584717 2.00782 2.29888
20 1 0.577268 1.40841 0.746702
21 1 1.25511 1.43736 1.58994
22 1 1.74447 2.08146 0.0646114
23 1 1.16756 2.07206 2.36948
24 1 1.68146 1.38385 0.740932
25 1 2.24543 1.62853 1.62155
26 1 2.86688 2.09582 0.0219718
27 1 2.32402 1.99842 2.53675
28 1 3.44005 2.06624 2.39532
29 1 3.96741 1.51126 0.865375
30 1 4.10709 1.92098 0.0255669
31 1 5.04136 1.8291 3.32425
32 1 5.09863 1.23924 0.750378
33 1 13.385 2.52207 1.58026
34 1 0.534182 2.99977 0.0633226
35 1 0.0836415 3.12304 2.41408
36 1 0.599356 2.34644 0.830569
37 1 1.7797 2.5289 0.751089
38 1 1.58972 3.39527 12.9157
39 1 1.19228 3.07333 2.47588
40 1 2.24437 2.63925 1.59418
41 1 3.00289 2.74818 0.761208
42 1 2.83205 3.28632 12.9414
43 1 2.2399 3.06208 2.57457
44 1 3.30119 2.55953 1.64813
45 1 3.32921 1.38749 1.53282
46 1 3.95468 3.16266 12.9207
47 1 3.00812 3.18716 3.21974
48 1 3.95366 2.5872 0.746573
49 1 0.0725444 3.55673 1.49949
50 1 0.67402 3.59743 0.739671
51 1 0.113176 4.17758 2.46717
52 1 1.22459 3.67247 1.64006
53 1 1.1127 2.62057 1.51155
54 1 1.70667 4.41986 12.7808
55 1 1.08464 4.24438 2.39905
56 1 1.74124 3.76218 0.855998
57 1 2.35322 3.71267 1.80632
58 1 2.82531 4.31807 0.0389035
59 1 2.326 4.39115 2.35655
60 1 2.67414 3.70024 0.873688
61 1 3.35298 3.81903 1.52933
62 1 3.849 4.23683 0.0549741
63 1 3.38413 4.20793 2.66031
64 1 3.94843 3.71145 0.842547
65 1 0.412525 0.928859 3.19481
66 1 0.554527 0.346162 3.949
67 1 1.64053 0.807031 3.07759
68 1 1.63498 0.409715 4.05933
69 1 2.82749 0.845592 3.42463
70 1 2.75864 0.392254 4.18689
71 1 3.90077 0.875188 3.26144
72 1 4.00456 0.351876 4.08493
73 1 0.540365 1.91853 3.18012
74 1 0.678016 1.34753 4.04982
75 1 1.6693 2.03621 3.2327
76 1 1.73001 1.3582 3.94396
77 1 2.92114 2.04144 3.21173
78 1 2.87831 1.55243 3.98681
79 1 4.01394 2.49628 4.21077
80 1 4.57077 1.98723 2.41193
81 1 0.682269 2.98183 3.25348
82 1 0.64236 2.37876 4.1364
83 1 1.82125 3.3254 3.37323
84 1 1.70758 2.55622 4.00034
85 1 2.79188 2.66359 4.03608
86 1 3.37288 2.53446 4.94351
87 1 3.37777 3.18447 2.26058
88 1 4.65135 2.55859 4.94108
89 1 0.541811 4.1497 3.29308
90 1 0.623802 3.53554 4.01323
91 1 1.74319 4.25291 3.10211
92 1 1.64918 3.68171 4.21361
93 1 2.77432 4.20252 3.39644
94 1 2.81289 3.68271 4.25079
95 1 4.03434 4.14426 3.31838
96 1 3.97059 2.9546 3.16803
97 1 4.50092 0.188235 1.72506
98 1 4.93058 0.569379 12.9479
99 1 4.47135 0.87301 2.47941
100 1 5.16024 0.15154 0.887597
101 1 5.67006 13.3273 1.66247
102 1 6.2077 0.402253 12.926
103 1 5.48497 0.486807 2.44192
104 1 6.24373 13.3483 0.756721
105 1 6.7752 0.111046 1.67243
106 1 7.31032 0.377928 0.0930711
107 1 6.68657 0.468515 2.45288
108 1 7.838 13.0366 1.63715
109 1 7.27639 13.2706 0.861294
110 1 7.68505 0.295999 12.1316
111 1 7.81991 0.264716 2.37115
112 1 8.42827 13.1616 0.824952
113 1 4.52853 1.11203 1.538
114 1 5.2043 1.76492 12.9338
115 1 4.00446 1.9891 3.2287
116 1 5.57736 1.13078 1.71413
117 1 6.03935 1.06173 0.818768
118 1 6.27679 2.18198 0.812649
119 1 5.62272 1.66703 2.54417
120 1 6.37216 1.56664 0.0648732
121 1 6.57891 1.0528 1.56863
122 1 6.79598 1.44594 12.1144
123 1 6.79116 1.69505 2.40342
124 1 7.26587 1.10046 0.827014
125 1 7.90169 0.744353 1.48003
126 1 8.95142 1.34262 12.1705
127 1 7.79398 1.28366 2.33241
128 1 8.56572 0.736551 0.861132
129 1 4.46426 2.33686 1.63502
130 1 5.04847 2.9039 0.0761189
131 1 4.5057 3.07635 2.51007
132 1 5.06091 2.30468 0.84421
133 1 5.5615 2.2099 1.58837
134 1 6.10026 2.682 12.8491
135 1 5.71448 2.81935 2.33131
136 1 6.88673 2.14833 1.38832
137 1 7.91951 2.37334 2.36414
138 1 7.84985 2.52898 12.225
139 1 6.75271 2.72355 2.47642
140 1 7.35574 1.5032 0.0734372
141 1 7.82299 1.93106 1.40689
142 1 8.4516 2.51741 0.134609
143 1 7.82861 2.98596 1.70441
144 1 8.4513 1.84266 0.829276
145 1 4.49568 3.47459 1.63651
146 1 5.07751 4.01928 12.8974
147 1 4.49546 4.12101 2.4281
148 1 5.00345 3.47144 0.856061
149 1 5.63192 3.3955 1.61658
150 1 6.2018 3.85909 0.0420505
151 1 5.62316 3.89327 2.45514
152 1 6.1388 3.24092 0.785212
153 1 7.28232 3.53099 0.0479826
154 1 6.75687 3.7539 12.2052
155 1 6.73754 3.29775 1.67535
156 1 7.39869 3.05344 0.783049
157 1 7.93799 3.61649 2.42033
158 1 8.51086 3.59168 0.02949
159 1 8.57327 3.59663 3.33922
160 1 8.45533 3.02363 0.952804
161 1 5.06193 0.585317 3.29275
162 1 4.97623 0.0482843 4.06879
163 1 6.16519 0.446943 3.17048
164 1 6.13324 13.3876 4.12928
165 1 7.45015 0.296262 3.29762
166 1 7.262 13.1957 4.1342
167 1 8.46384 0.200196 3.24701
168 1 8.47014 13.0741 3.96452
169 1 5.12435 1.26632 3.95646
170 1 4.69559 1.34146 4.77567
171 1 6.14393 1.65182 3.25182
172 1 6.17973 0.986197 4.02246
173 1 7.33029 1.48892 3.16053
174 1 7.27099 0.907312 3.92019
175 1 8.40014 1.32179 3.24012
176 1 8.40375 0.891886 4.17038
177 1 5.16951 2.97555 3.13362
178 1 5.02964 2.45394 4.04588
179 1 6.07269 2.74926 3.17509
180 1 6.25082 2.16052 3.94785
181 1 7.27125 2.62336 3.25647
182 1 7.28966 2.0273 4.1142
183 1 8.30689 2.52952 3.23682
184 1 8.44605 1.92004 3.98353
185 1 5.03886 3.59225 4.05435
186 1 4.52349 3.61383 4.95639
187 1 6.79364 3.8695 2.58359
188 1 6.17949 3.22149 4.17468
189 1 7.41481 3.67463 3.23668
190 1 7.26246 3.08943 4.11618
191 1 8.44128 4.73646 3.19995
192 1 7.91697 3.10362 4.93085
193 1 9.03394 13.0311 1.6244
194 1 8.74734 0.186611 12.1053
195 1 8.84373 0.121274 2.37015
196 1 9.46203 13.0023 0.733233
197 1 10.0655 13.1375 1.70003
198 1 10.7132 0.396351 0.0397041
199 1 10.0665 0.318419 2.60128
200 1 10.5205 13.1744 0.730922
201 1 11.0316 13.2779 1.67599
202 1 11.2192 0.558993 12.1208
203 1 11.347 0.444987 2.43648
204 1 11.6369 13.352 0.91467
205 1 12.3889 0.171238 1.4572
206 1 11.7957 0.443384 0.0863116
207 1 12.3703 0.456497 2.3772
208 1 12.8899 13.1492 0.298889
209 1 9.05169 0.802774 1.72605
210 1 9.47842 2.38606 12.841
211 1 9.01826 1.32202 2.49199
212 1 9.42579 0.128367 12.848
213 1 10.0255 0.786887 1.64366
214 1 10.5785 2.00707 0.767139
215 1 10.1385 1.37331 2.43178
216 1 10.6221 1.02956 0.695683
217 1 11.0998 0.91766 1.61487
218 1 11.7671 1.48939 0.0974545
219 1 11.2871 1.52783 2.49063
220 1 11.7322 1.0826 0.942833
221 1 12.2831 1.29745 1.6778
222 1 12.796 0.636821 0.119156
223 1 12.3744 1.62649 2.51543
224 1 13.3007 0.112986 1.32154
225 1 9.00589 1.89907 1.60808
226 1 8.93446 2.37222 12.1109
227 1 8.97532 2.283 2.56676
228 1 9.47086 1.73582 0.710187
229 1 10.0942 1.86592 1.68824
230 1 10.0081 2.06569 11.5616
231 1 10.0425 2.51851 2.32492
232 1 10.6974 2.92665 0.74649
233 1 11.1914 2.02796 1.74028
234 1 11.8498 2.65522 12.8224
235 1 11.1859 2.76118 2.3128
236 1 11.7131 2.21412 0.739623
237 1 12.2877 2.31357 1.59334
238 1 12.9561 2.79667 0.0348357
239 1 12.3594 2.71163 2.46015
240 1 12.7789 1.67172 12.8731
241 1 9.02504 2.97861 1.70312
242 1 9.61441 4.1209 0.777648
243 1 8.93453 3.44801 2.42761
244 1 9.50659 2.84143 0.783592
245 1 10.092 3.00246 1.48232
246 1 10.6877 3.48807 0.0966957
247 1 10.2822 3.50299 2.48077
248 1 10.1997 2.94404 11.4716
249 1 11.232 3.36268 1.58052
250 1 12.4096 3.93901 12.1474
251 1 11.4402 3.82403 2.38009
252 1 11.7885 3.2459 0.845104
253 1 12.3823 3.44157 1.62462
254 1 12.9064 3.3458 0.743004
255 1 12.5445 3.97677 2.34987
256 1 12.8192 2.06724 0.770696
257 1 9.45472 0.285836 3.25907
258 1 9.58453 13.0963 4.03881
259 1 10.6698 0.278549 3.17172
260 1 10.6178 13.2131 4.1484
261 1 11.726 0.474152 3.31859
262 1 11.8285 13.3057 4.14298
263 1 12.7408 0.706475 3.35171
264 1 12.9461 0.0719786 3.99783
265 1 9.55284 1.34767 3.35189
266 1 9.71538 0.814701 4.15868
267 1 10.596 1.43584 3.28925
268 1 10.6793 0.890609 3.97814
269 1 11.6786 1.65647 3.30858
270 1 11.636 0.954742 4.13083
271 1 12.9471 1.83077 3.23612
272 1 12.9025 1.2074 4.1771
273 1 9.64674 2.42052 3.28884
274 1 9.44412 1.96514 4.15658
275 1 10.6891 2.48817 3.20816
276 1 10.8003 1.9443 4.18527
277 1 11.7849 2.70147 3.17709
278 1 11.8943 2.15753 3.97766
279 1 13.0364 2.9161 3.15561
280 1 12.8924 2.43412 4.04712
281 1 9.66863 3.63896 3.15706
282 1 9.63275 3.08709 4.00418
283 1 10.8391 3.74913 3.17226
284 1 10.7412 2.97607 3.95329
285 1 11.8958 3.66203 3.33247
286 1 11.8795 3.23888 4.13674
287 1 12.7971 3.9547 3.21738
288 1 12.9621 3.46403 4.03422
289 1 13.3955 4.65558 1.5677
290 1 0.521865 5.23319 0.0025149
291 1 0.123469 5.24343 2.23699
292 1 0.691267 4.68587 0.813757
293 1 1.15053 4.82074 1.6286
294 1 1.70701 5.42407 0.0513331
295 1 1.18972 5.38824 2.43272
296 1 1.8168 4.80017 0.826819
297 1 2.37305 4.95934 1.50072
298 1 2.78254 5.47176 0.0836466
299 1 2.34638 5.46994 2.43661
300 1 2.93885 4.90258 0.745296
301 1 3.48413 4.78855 1.56556
302 1 3.94692 5.21527 12.8039
303 1 3.38926 5.19973 2.4107
304 1 4.15837 4.82553 0.776112
305 1 0.00692831 5.95913 1.49302
306 1 0.579055 6.25485 12.9346
307 1 13.3363 6.40554 2.42135
308 1 0.604675 5.65261 0.93443
309 1 1.24503 5.91843 1.60422
310 1 1.73377 6.58463 0.0412806
311 1 1.05956 6.45191 2.41797
312 1 1.65326 6.0024 0.771161
313 1 2.20078 6.06765 1.56051
314 1 2.69015 6.47796 0.065792
315 1 2.14897 6.50339 2.45491
316 1 2.99667 5.9163 0.867526
317 1 3.39386 5.86451 1.78695
318 1 3.90419 6.42073 0.109205
319 1 3.32938 6.4958 2.53696
320 1 3.97534 5.7925 0.70015
321 1 13.3069 6.94097 1.45136
322 1 0.622714 7.49846 0.136434
323 1 0.0104743 7.44166 2.44735
324 1 0.479344 6.88871 0.805762
325 1 1.04199 6.96179 1.64578
326 1 1.67489 7.76119 0.0671231
327 1 1.16006 7.70333 2.36224
328 1 1.57361 7.10305 0.797662
329 1 2.17616 7.14157 1.59799
330 1 2.81072 7.5787 12.9228
331 1 2.23759 7.61522 2.48404
332 1 2.7287 7.12327 0.818665
333 1 3.34043 6.93392 1.63101
334 1 3.92171 7.44843 12.914
335 1 3.5153 7.56713 2.34416
336 1 3.84841 7.05746 0.824229
337 1 0.0615532 7.97133 1.68351
338 1 0.443585 8.6777 12.8248
339 1 13.3153 8.67756 2.27563
340 1 0.574973 8.15899 0.736736
341 1 1.07095 8.04885 1.57928
342 1 1.63489 8.93723 12.9338
343 1 1.03558 8.75523 2.51407
344 1 1.66813 8.35319 0.838278
345 1 2.17106 8.15115 1.70781
346 1 2.76463 8.70805 0.0336492
347 1 2.23673 8.87262 2.42011
348 1 2.7248 8.19083 0.813414
349 1 3.26125 8.21613 1.70894
350 1 3.94771 8.65601 0.117359
351 1 2.73231 9.94939 3.27618
352 1 3.87349 8.08778 0.914995
353 1 0.59724 5.29132 3.1611
354 1 0.723122 4.63305 3.98597
355 1 1.78119 5.31403 3.23639
356 1 1.67902 4.65655 4.1255
357 1 2.88384 5.46969 3.29599
358 1 2.7169 4.89628 4.05971
359 1 3.92939 5.36508 3.32401
360 1 3.83346 4.6761 4.0236
361 1 0.570519 6.42091 3.18565
362 1 0.575891 5.77256 4.02517
363 1 1.64013 6.53522 3.35461
364 1 1.71019 5.87865 4.0281
365 1 2.74801 6.65084 3.249
366 1 2.81991 6.03625 4.03943
367 1 3.87605 6.32936 3.2096
368 1 4.05149 5.95358 4.1388
369 1 0.602246 7.51618 3.21609
370 1 0.536323 6.9178 3.99704
371 1 1.57313 7.5883 3.26576
372 1 1.67238 7.13791 4.1904
373 1 2.83218 7.66769 3.19232
374 1 2.7206 7.10699 4.06261
375 1 4.94265 7.39707 3.30289
376 1 3.43335 7.0493 4.93343
377 1 0.443643 8.67825 3.2773
378 1 0.496792 8.02203 4.03476
379 1 1.70404 8.63312 3.17719
380 1 1.57544 8.13023 4.09292
381 1 3.89055 8.76378 3.34339
382 1 2.68289 8.11401 4.12133
383 1 3.90672 7.58685 3.29486
384 1 3.88174 8.10236 4.11194
385 1 4.55865 4.71301 1.6845
386 1 5.07927 5.21908 12.9285
387 1 4.56772 5.21014 2.57185
388 1 5.0679 4.53887 0.771417
389 1 5.69387 5.04367 2.42907
390 1 6.13868 4.37178 0.838427
391 1 6.16998 4.93158 3.21263
392 1 5.51136 4.46423 1.66381
393 1 6.65917 4.29488 1.68487
394 1 6.67076 4.91345 12.0941
395 1 6.81442 4.90031 2.43941
396 1 7.30633 4.10442 0.874311
397 1 7.94344 4.26603 1.63463
398 1 8.3768 4.59142 0.116655
399 1 7.77036 4.597 2.39747
400 1 8.42574 4.12809 0.852972
401 1 4.46546 5.84631 1.7328
402 1 5.05272 6.29212 12.9135
403 1 4.47297 6.42885 2.55694
404 1 5.00712 5.72593 0.833657
405 1 5.54378 5.5569 1.53398
406 1 6.14623 6.16676 0.0383796
407 1 6.01953 6.09654 3.19063
408 1 6.05991 5.49102 0.852032
409 1 6.63434 5.4067 1.58775
410 1 7.318 5.17117 0.84375
411 1 6.64533 5.93809 2.44597
412 1 7.2711 4.62661 12.9169
413 1 7.84159 5.33592 1.69999
414 1 8.26648 5.81949 0.0935618
415 1 7.8684 5.85222 2.41219
416 1 8.45612 5.28004 0.772277
417 1 4.42621 6.86216 1.55436
418 1 4.99227 7.34511 0.0167187
419 1 4.54769 7.48146 2.3951
420 1 5.04917 6.81778 0.827014
421 1 5.46276 6.09877 2.35757
422 1 6.08071 7.27213 12.9295
423 1 5.61317 6.73309 1.61132
424 1 6.13382 6.74235 0.829038
425 1 6.67988 6.47584 1.66444
426 1 7.28569 7.00235 12.8764
427 1 6.65336 7.10691 2.52432
428 1 7.17674 6.54799 0.738853
429 1 7.76271 6.36782 1.53668
430 1 8.46941 6.36335 0.818134
431 1 7.80201 6.9101 2.27889
432 1 8.97368 6.30199 1.62984
433 1 4.51172 8.01971 1.60243
434 1 5.01393 8.40422 12.943
435 1 4.40304 8.62521 2.36855
436 1 5.10307 7.87937 0.841428
437 1 5.6129 7.27282 2.42336
438 1 6.15944 8.39103 12.7994
439 1 5.68007 7.78344 1.62131
440 1 6.11907 7.91031 0.70799
441 1 6.71815 7.5266 1.64964
442 1 7.26356 8.22597 12.8261
443 1 6.75994 8.24096 2.27805
444 1 7.2578 7.62929 0.849752
445 1 7.82451 7.60077 1.59343
446 1 8.39486 7.5049 0.824618
447 1 7.93124 8.66234 1.51655
448 1 8.3081 6.77538 12.9346
449 1 4.98479 5.19218 3.35411
450 1 5.05375 4.01471 3.21783
451 1 6.25583 5.59994 3.99833
452 1 6.21925 3.80715 3.3848
453 1 7.36315 4.9 3.33829
454 1 7.46608 4.27701 4.01526
455 1 8.4283 5.25094 4.04829
456 1 8.43024 3.1178 4.19948
457 1 5.07201 5.80446 4.12624
458 1 4.51293 5.06727 5.64835
459 1 6.27486 6.716 4.02982
460 1 6.07159 7.12249 3.2159
461 1 7.23697 6.06929 3.20302
462 1 8.43729 5.86941 6.33311
463 1 8.47228 5.7905 3.11906
464 1 7.79642 5.83752 5.66966
465 1 5.18947 7.91828 4.07799
466 1 5.01703 6.35388 3.34213
467 1 6.19414 8.23646 3.1463
468 1 5.09551 6.90385 4.18369
469 1 6.21926 7.78542 3.97643
470 1 7.31707 7.14645 3.12124
471 1 8.41084 6.91451 3.12347
472 1 8.39109 6.33671 3.9547
473 1 4.96493 8.44605 3.19192
474 1 4.5533 8.05511 4.8201
475 1 5.81029 7.88945 4.97138
476 1 6.76628 7.57863 4.86124
477 1 7.25551 8.21178 3.19127
478 1 6.74704 8.83841 4.87158
479 1 7.75329 8.18974 2.38711
480 1 8.38794 7.39522 4.07825
481 1 9.06904 3.99246 1.63102
482 1 9.35095 4.8196 12.9014
483 1 8.98793 4.58051 2.4682
484 1 10.0421 4.08206 1.67658
485 1 10.6657 4.19061 0.756168
486 1 10.0181 4.62059 12.1842
487 1 10.1568 4.63532 2.33778
488 1 10.6245 4.80809 12.8996
489 1 11.1976 4.33437 1.53542
490 1 12.375 5.07759 12.2034
491 1 11.2607 4.78618 2.49218
492 1 11.7527 4.39816 0.62787
493 1 12.2586 4.60326 1.50981
494 1 12.9395 5.17891 12.9403
495 1 12.425 5.0115 2.58431
496 1 12.9394 4.66004 0.77834
497 1 8.99295 5.10083 1.57665
498 1 9.46572 5.81806 12.9043
499 1 9.42103 5.82383 3.20878
500 1 9.6677 5.19163 0.782649
501 1 10.1408 5.25383 1.65621
502 1 10.6273 5.79944 0.0443124
503 1 10.0522 5.84127 2.47451
504 1 10.7212 5.17762 0.843877
505 1 11.2551 5.37273 1.69025
506 1 11.3014 5.93592 12.233
507 1 11.2611 5.86556 2.56396
508 1 11.7088 5.6855 0.854113
509 1 12.3872 5.64874 1.62906
510 1 12.9256 6.44544 0.00832794
511 1 12.2466 6.09974 2.43252
512 1 12.7543 5.78955 0.682352
513 1 8.98011 5.71848 2.32048
514 1 9.42946 6.85491 0.0668993
515 1 8.91747 6.86281 2.42636
516 1 9.66805 6.24719 0.849225
517 1 10.0633 6.35392 1.68692
518 1 10.6136 7.0387 12.9157
519 1 10.1557 7.01259 2.51762
520 1 10.8027 6.58851 0.731113
521 1 11.192 6.48515 1.57526
522 1 11.794 7.09738 12.8744
523 1 11.1601 6.93958 2.43165
524 1 12.4993 6.77427 0.800103
525 1 12.2012 6.75529 1.6745
526 1 12.2614 7.28048 12.1138
527 1 12.2512 7.39042 2.43865
528 1 13.0673 7.43356 12.9029
529 1 8.90144 7.38737 1.62292
530 1 10.2129 8.06458 11.9322
531 1 8.40538 7.90094 3.21084
532 1 9.5405 7.30363 0.805345
533 1 10.0524 7.46481 1.67511
534 1 10.6276 7.94285 12.9309
535 1 10.0279 8.21316 2.33676
536 1 10.3869 7.6104 0.867553
537 1 11.2585 7.63285 1.52222
538 1 11.6585 8.23563 0.0792122
539 1 11.1908 8.09667 2.43543
540 1 11.7141 7.51064 0.778915
541 1 12.3435 7.91629 1.52511
542 1 12.6325 8.47073 0.0959997
543 1 12.2781 8.33009 2.34489
544 1 12.9443 7.89461 0.765892
545 1 9.63161 4.72605 3.1813
546 1 9.74544 4.18191 4.07501
547 1 10.6133 4.86431 3.25398
548 1 10.8149 4.09892 3.95413
549 1 11.7687 4.8086 3.24383
550 1 11.8149 4.35954 4.09005
551 1 12.956 5.17002 3.21337
552 1 12.9489 4.63209 4.06922
553 1 9.43349 6.34597 3.93576
554 1 9.42569 5.18128 4.11661
555 1 10.5908 5.88904 3.24512
556 1 10.6585 5.28825 4.1005
557 1 11.7312 6.07947 3.50481
558 1 11.8536 5.44075 4.03529
559 1 12.9245 6.27318 3.22143
560 1 12.8075 5.63647 4.08295
561 1 9.43497 7.97948 3.10549
562 1 9.55105 6.96744 3.19509
563 1 10.7969 6.95473 3.21668
564 1 10.5185 6.38035 4.0227
565 1 11.8516 7.07484 3.24423
566 1 11.7332 6.69181 4.22755
567 1 12.8745 7.5784 3.20967
568 1 12.9732 6.8137 4.02007
569 1 8.87558 8.07029 2.40853
570 1 8.93446 7.50347 4.8964
571 1 10.6689 8.05483 3.29586
572 1 10.6701 7.50109 4.06557
573 1 11.7114 8.2259 3.24343
574 1 11.8134 7.71032 4.08413
575 1 12.8603 8.60473 3.15563
576 1 12.8585 7.97466 4.03266
577 1 0.0119248 9.16153 1.5297
578 1 0.394447 9.81065 12.8891
579 1 13.3166 9.77426 2.52978
580 1 0.607911 9.16721 0.710303
581 1 1.07648 9.24966 1.78907
582 1 1.62803 9.98335 12.9167
583 1 1.07583 9.86114 2.54943
584 1 1.55148 9.34941 0.860278
585 1 2.1559 9.30175 1.63095
586 1 2.73553 9.94783 12.9463
587 1 2.32328 9.94962 2.43687
588 1 2.71736 9.35062 0.814199
589 1 3.38878 9.27357 1.66396
590 1 3.81206 9.76416 0.00185399
591 1 3.30847 8.77879 2.53687
592 1 3.86594 9.22097 0.844011
593 1 13.403 10.2275 1.62505
594 1 0.521151 10.8604 0.165354
595 1 13.2948 10.7944 2.35614
596 1 0.67453 10.2601 0.827007
597 1 1.19496 10.3234 1.62852
598 1 1.5742 11.0834 12.9269
599 1 0.953164 10.8658 2.55983
600 1 1.74659 10.477 0.714811
601 1 2.14125 10.4435 1.58715
602 1 2.79887 10.994 12.8845
603 1 2.12693 11.0633 2.46857
604 1 2.80502 10.4768 0.818126
605 1 3.26514 10.3731 1.56152
606 1 3.85827 10.9971 0.0776193
607 1 3.22098 11.0343 2.34372
608 1 3.87652 10.4222 0.827644
609 1 13.3311 11.3901 1.6022
610 1 0.500133 12.0878 0.0803955
611 1 0.0458707 11.9742 2.49313
612 1 0.574785 11.4809 0.866042
613 1 0.968024 11.3408 1.65975
614 1 2.16844 12.1404 12.1019
615 1 1.15424 12.0099 2.26387
616 1 1.68259 11.6334 0.861672
617 1 2.12804 11.5177 1.61587
618 1 2.75271 12.7572 0.688899
619 1 2.196 12.1528 2.52699
620 1 2.73667 11.5931 0.751798
621 1 3.1334 11.476 1.51571
622 1 3.93036 12.0071 12.8941
623 1 3.4468 12.1227 2.36805
624 1 4.00382 11.6029 0.997843
625 1 13.4019 12.5416 1.64278
626 1 0.537886 13.1674 0.0535967
627 1 0.0300456 13.1329 2.30666
628 1 0.444519 12.5442 0.867986
629 1 1.05135 12.6243 1.57588
630 1 1.63636 0.885265 12.8556
631 1 1.10434 13.1396 2.27944
632 1 1.69992 12.7288 0.816124
633 1 2.21145 12.6517 1.65778
634 1 1.63215 13.2989 12.9417
635 1 2.09049 13.3363 2.32141
636 1 2.89913 13.2618 12.8743
637 1 3.22961 12.6614 1.68789
638 1 4.02518 13.1491 0.104852
639 1 3.22355 13.3184 2.42613
640 1 3.9191 12.5423 0.987633
641 1 0.33209 9.74156 3.26916
642 1 0.678007 9.22298 4.12765
643 1 1.57334 9.85713 3.24603
644 1 1.7121 9.14509 3.92073
645 1 2.7819 8.68717 3.30538
646 1 2.74915 9.31845 3.87225
647 1 3.3854 9.87168 2.44222
648 1 3.94205 9.78654 3.25808
649 1 0.534026 10.9749 3.25976
650 1 0.460758 10.35 3.97123
651 1 1.68818 10.9128 3.20526
652 1 1.59702 10.3837 4.05914
653 1 2.8847 11.054 3.25161
654 1 2.73554 10.4718 4.12293
655 1 3.88598 10.886 3.2577
656 1 3.78733 10.3264 4.04803
657 1 0.576563 12.0439 3.23172
658 1 0.595576 11.5897 4.11374
659 1 1.61568 12.0861 3.18712
660 1 1.70253 11.4405 4.04911
661 1 2.80902 12.0398 3.09077
662 1 2.70446 11.6874 4.06618
663 1 3.88522 12.0977 3.23553
664 1 3.82302 11.6278 4.07359
665 1 0.570681 13.1486 3.20506
666 1 0.514697 12.6522 3.94091
667 1 1.58777 13.1705 3.32094
668 1 1.6336 12.5558 4.13746
669 1 2.59717 13.2633 3.25539
670 1 2.71639 12.7093 3.94028
671 1 3.77246 13.1812 3.28438
672 1 3.86796 12.6967 4.06353
673 1 4.55292 9.11656 1.61151
674 1 5.0365 9.52719 12.8392
675 1 4.47627 9.71276 2.43544
676 1 5.09213 9.02405 0.767006
677 1 5.56587 9.00932 1.56599
678 1 6.16476 10.4497 12.8957
679 1 5.59226 9.42829 2.44905
680 1 6.25322 8.91394 0.784338
681 1 6.67519 8.78839 1.54355
682 1 7.31179 9.33508 0.0214911
683 1 6.73772 9.40344 2.255
684 1 7.32846 8.71192 0.780586
685 1 8.41812 8.52738 0.622522
686 1 8.41898 9.07656 12.8228
687 1 7.73894 9.80323 1.57039
688 1 8.29977 7.84116 12.9213
689 1 4.44289 10.2219 1.58222
690 1 4.88921 10.6732 0.0967862
691 1 4.30907 10.8652 2.4168
692 1 5.00689 10.1168 0.813
693 1 5.56368 10.1694 1.76588
694 1 5.47907 10.7517 12.3388
695 1 5.53351 10.6948 2.46047
696 1 6.11373 9.48651 12.853
697 1 6.07257 9.89683 0.86641
698 1 7.30067 10.4472 0.0918952
699 1 6.617 10.5433 2.46841
700 1 6.66816 10.0779 1.59074
701 1 7.14957 9.79979 0.726848
702 1 8.39652 10.1349 12.941
703 1 7.77162 10.2715 2.47829
704 1 8.27347 9.72178 0.889744
705 1 4.57928 11.284 1.68306
706 1 4.93234 11.8904 0.111745
707 1 4.4797 11.9092 2.41731
708 1 5.047 11.297 0.793963
709 1 5.68197 11.2006 1.58483
710 1 6.01526 11.697 0.0413617
711 1 5.52711 11.7276 2.6105
712 1 6.06887 10.9655 0.827748
713 1 6.73127 11.1385 1.67403
714 1 7.19362 11.5341 0.0818051
715 1 6.58042 11.6266 2.47267
716 1 7.1853 11.0349 0.797777
717 1 7.77154 10.9125 1.62601
718 1 8.33097 11.3392 0.0781601
719 1 7.75256 11.4286 2.48772
720 1 8.43352 10.7863 0.800979
721 1 4.4428 12.6401 1.73034
722 1 4.94624 12.9936 0.104551
723 1 4.33691 13.1197 2.54516
724 1 5.17944 12.4535 0.874621
725 1 5.46256 12.2747 1.63414
726 1 6.03547 12.7684 12.8363
727 1 5.62699 12.8241 2.54477
728 1 6.14307 12.2912 0.816534
729 1 6.56851 12.2534 1.59894
730 1 7.21445 12.7296 0.0100287
731 1 6.67164 12.6905 2.39375
732 1 7.26548 12.1834 0.873286
733 1 7.79775 11.8959 1.65646
734 1 8.28938 12.5798 0.084669
735 1 7.86043 12.5931 2.39894
736 1 8.38813 11.9539 0.764687
737 1 5.03834 9.63337 3.24461
738 1 4.92253 9.06971 3.91977
739 1 6.17012 9.4327 3.14265
740 1 6.09771 8.89369 4.02593
741 1 7.75149 9.26383 2.45391
742 1 7.24524 8.73256 4.1392
743 1 8.35486 9.13961 3.20173
744 1 8.90195 8.6199 4.75599
745 1 4.93844 10.7288 3.23737
746 1 4.97753 10.1803 4.02842
747 1 6.10636 10.4787 3.18407
748 1 6.17178 9.95243 4.06317
749 1 7.27185 10.348 3.29075
750 1 7.31227 9.68645 4.06291
751 1 8.39248 10.1603 3.24793
752 1 8.37275 9.70529 4.14583
753 1 4.90041 11.8842 3.40825
754 1 4.90058 11.2488 4.05926
755 1 6.10182 11.6472 3.33
756 1 6.1418 11.0662 4.01459
757 1 7.21857 11.558 3.20171
758 1 7.33618 10.9759 3.86494
759 1 8.51722 11.2827 3.15828
760 1 8.42573 10.8108 4.10064
761 1 5.00586 12.9968 3.18667
762 1 4.98694 12.4517 4.04368
763 1 6.14329 12.8288 3.28726
764 1 6.00264 12.3652 4.02781
765 1 7.20951 12.7186 3.16299
766 1 7.10989 12.1542 4.01557
767 1 8.26494 12.5001 3.27056
768 1 8.2827 11.9004 3.99217
769 1 8.93539 8.53662 1.54276
770 1 9.4641 8.42968 0.657611
771 1 8.87704 9.15481 2.3795
772 1 9.54763 9.23422 0.0501011
773 1 10.0185 8.68492 1.45779
774 1 10.0838 9.2593 12.0334
775 1 9.92918 9.2479 2.51393
776 1 10.6646 8.65453 0.792342
777 1 11.0966 8.68656 1.76485
778 1 11.7452 9.42443 12.931
779 1 11.2192 9.28437 2.40168
780 1 11.6209 8.81665 0.837682
781 1 12.2331 8.85768 1.65341
782 1 12.8255 9.60865 0.0605367
783 1 12.3194 9.54753 2.35375
784 1 12.8836 9.08309 0.818346
785 1 8.94532 9.59771 1.52761
786 1 9.44281 10.3624 12.8533
787 1 8.85812 10.3013 2.36792
788 1 9.46285 9.83386 0.801796
789 1 10.0487 9.61828 1.60685
790 1 10.5674 9.81835 0.732332
791 1 9.93077 10.3142 2.35478
792 1 10.5621 9.1542 0.0246429
793 1 11.0274 9.87522 1.62646
794 1 11.7866 10.4823 12.9311
795 1 11.133 10.4508 2.48106
796 1 11.669 9.9231 0.891507
797 1 12.1598 10.0654 1.6615
798 1 12.8822 10.778 0.110234
799 1 12.2839 10.6901 2.42144
800 1 12.8563 10.2134 0.938563
801 1 8.80073 10.7482 1.67104
802 1 9.43088 11.3897 0.0133815
803 1 8.95738 11.5476 2.44507
804 1 9.43787 10.9051 0.861147
805 1 10.0721 10.8101 1.54789
806 1 10.4756 11.5232 12.8805
807 1 9.94875 11.3791 2.38698
808 1 10.5619 11.0297 0.778069
809 1 11.2636 11.0272 1.50348
810 1 11.4987 11.683 12.8785
811 1 11.0715 11.4001 2.48222
812 1 11.8404 11.0298 0.666374
813 1 12.1892 11.1787 1.59114
814 1 12.6208 11.9437 12.7946
815 1 12.2173 11.7738 2.38072
816 1 12.8469 11.4839 0.828656
817 1 8.82275 11.9567 1.60829
818 1 9.39291 12.3895 12.9488
819 1 9.04955 12.5732 2.51971
820 1 9.45135 11.9866 0.922605
821 1 10.0924 12.0714 1.67697
822 1 10.607 12.5781 12.8704
823 1 10.0784 12.6496 2.5746
824 1 10.5498 12.1668 0.909416
825 1 11.2274 12.0502 1.65155
826 1 13.2685 13.079 12.2014
827 1 11.1924 12.6788 2.33386
828 1 11.6762 12.1104 0.750513
829 1 12.2078 12.5119 1.62046
830 1 11.7508 12.8265 0.0146964
831 1 12.2981 12.8395 2.41613
832 1 12.6831 12.494 0.714175
833 1 9.4758 9.15669 3.31681
834 1 10.1429 8.68975 4.87568
835 1 10.6234 9.30884 3.04162
836 1 10.5386 8.79874 3.97597
837 1 11.7202 9.39043 3.2265
838 1 11.7352 8.8229 3.9849
839 1 12.721 9.62512 3.33656
840 1 12.9098 8.96069 4.17711
841 1 9.37529 10.1517 3.18531
842 1 9.49405 9.79146 4.10235
843 1 10.4824 10.3765 3.15397
844 1 10.5526 9.72121 3.93398
845 1 11.6678 10.5901 3.27327
846 1 11.7224 9.93167 4.02451
847 1 12.8918 10.7552 3.20697
848 1 12.8477 10.1646 4.12181
849 1 9.55382 11.248 3.27709
850 1 9.51774 10.869 4.20791
851 1 10.5682 11.5498 3.19615
852 1 10.732 10.8423 3.91725
853 1 11.7686 11.6454 3.15763
854 1 11.7272 11.1061 3.96564
855 1 12.7932 11.8693 3.2007
856 1 12.871 11.2729 3.99717
857 1 9.56472 12.4665 3.31751
858 1 9.31891 11.8654 3.98353
859 1 10.7952 12.715 3.29204
860 1 10.5958 11.9907 4.06106
861 1 11.8021 12.718 3.19102
862 1 11.7288 12.2969 3.99308
863 1 12.892 13.068 3.191
864 1 12.8418 12.4279 3.9695
865 1 0.125812 0.141216 4.86217
866 1 0.0605397 0.679029 5.73757
867 1 0.989515 0.445573 4.9505
868 1 1.14243 0.926642 5.77027
869 1 2.0443 0.309044 4.88328
870 1 2.28497 0.907863 5.60844
871 1 3.36941 0.312689 4.80298
872 1 3.36881 0.82546 5.64668
873 1 0.0274246 1.27038 4.84967
874 1 0.0320683 1.72085 5.60906
875 1 1.30893 1.49942 4.89422
876 1 1.1943 2.0049 5.74635
877 1 2.34893 1.40278 4.81371
878 1 2.40658 1.99196 5.74434
879 1 3.4618 1.48226 4.92432
880 1 3.52685 1.96604 5.65005
881 1 0.0125971 2.42855 4.88916
882 1 0.148386 2.93173 5.70839
883 1 1.11027 2.55478 4.89521
884 1 1.07611 3.07201 5.81351
885 1 2.2333 2.48625 4.78025
886 1 2.14871 2.91611 5.69016
887 1 3.42033 3.09411 5.71236
888 1 3.92739 3.09033 6.58519
889 1 0.120253 3.53492 4.84422
890 1 0.0682551 4.00955 5.74244
891 1 1.24702 3.62349 4.97199
892 1 1.27275 4.22658 5.62421
893 1 2.34535 3.56486 5.06072
894 1 2.3457 4.25763 5.77287
895 1 3.51298 3.65133 4.90548
896 1 3.3782 4.30352 5.75811
897 1 0.0326457 0.0635231 8.19969
898 1 0.592625 0.733931 6.55293
899 1 0.482068 0.264376 7.31522
900 1 1.17307 0.332041 8.0428
901 1 1.73743 0.964827 6.45524
902 1 1.66427 0.276774 7.35744
903 1 2.31675 0.475619 7.94389
904 1 2.75286 0.941089 6.44313
905 1 2.99199 0.313443 7.27664
906 1 3.41599 0.399921 8.18174
907 1 3.78006 1.00918 6.62626
908 1 4.03626 0.401952 7.2591
909 1 0.0942701 1.31878 8.14454
910 1 0.574316 1.86267 6.51343
911 1 0.707894 1.25373 7.32587
912 1 1.17259 1.43663 8.28208
913 1 1.66903 2.0832 6.44174
914 1 1.65424 1.49786 7.29944
915 1 2.13789 1.61191 8.15656
916 1 2.92069 1.96717 6.5436
917 1 2.65729 1.45767 7.2845
918 1 3.29045 0.877279 8.95466
919 1 3.94185 2.60104 7.50755
920 1 3.91463 1.48765 7.48477
921 1 0.00441735 2.45471 8.11818
922 1 0.550012 3.04634 6.70744
923 1 0.687952 2.34143 7.33771
924 1 0.992095 2.61959 8.13062
925 1 1.78665 3.29015 6.47636
926 1 1.66671 2.63061 7.21469
927 1 2.08238 2.60282 8.12711
928 1 2.81904 3.17638 6.51462
929 1 2.85348 2.60217 7.26054
930 1 3.34949 2.00977 8.91489
931 1 3.46831 3.77579 8.23062
932 1 3.24873 2.67452 8.15382
933 1 0.123147 3.55118 8.1898
934 1 0.642061 4.27431 6.44143
935 1 0.616494 3.68849 7.32048
936 1 1.25673 3.79283 8.17745
937 1 1.76597 4.30052 6.57814
938 1 1.66968 3.75217 7.44361
939 1 2.36734 3.70497 8.24465
940 1 2.96032 4.31313 6.54054
941 1 2.86889 3.65225 7.3281
942 1 3.38855 4.40093 8.95035
943 1 4.51268 4.14785 5.7199
944 1 3.90146 2.10678 6.63488
945 1 4.56806 0.425379 4.95044
946 1 4.4303 0.670655 5.80928
947 1 5.59447 0.0240435 4.98114
948 1 5.65411 0.618341 5.70936
949 1 6.76076 13.3012 4.83682
950 1 6.76987 0.33071 5.64901
951 1 7.97618 13.1488 4.80555
952 1 7.94639 0.216758 5.71164
953 1 3.96331 1.41645 4.0714
954 1 4.01353 3.47093 4.0272
955 1 5.71815 1.20485 4.86639
956 1 5.6778 1.76907 5.72761
957 1 6.79075 0.972874 4.86285
958 1 6.8379 2.56371 5.5376
959 1 7.7181 0.784219 4.82152
960 1 7.98682 1.43365 5.56643
961 1 4.54757 1.78001 5.57133
962 1 5.10534 3.36458 7.2367
963 1 5.70414 2.23445 4.785
964 1 5.11347 2.87029 6.44484
965 1 6.77571 2.00141 4.87526
966 1 6.7739 3.77529 5.76029
967 1 7.90329 1.97898 4.83841
968 1 7.87611 2.51094 5.71572
969 1 5.59786 3.41831 4.86282
970 1 4.01295 4.1565 6.44875
971 1 5.1155 4.67687 4.00366
972 1 5.74704 4.52959 5.00614
973 1 6.76624 3.28142 4.97205
974 1 6.87425 4.32084 4.82928
975 1 7.94929 3.62936 5.71681
976 1 8.545 3.65679 6.53272
977 1 4.48353 0.22268 8.08608
978 1 5.04316 0.698847 6.41796
979 1 5.01959 0.0328068 7.26114
980 1 5.52757 13.2979 8.14151
981 1 6.12226 0.538058 6.56287
982 1 6.10302 13.366 7.2286
983 1 6.69353 12.8363 8.89602
984 1 7.35343 0.452172 6.39245
985 1 6.6256 13.251 8.03907
986 1 7.73639 13.2009 7.99901
987 1 8.43084 0.194509 6.49764
988 1 8.48174 13.0619 7.17348
989 1 4.42135 1.31945 8.13878
990 1 4.91452 1.72704 6.50901
991 1 5.05593 1.16493 7.28786
992 1 5.49376 1.11401 8.12774