data.lammps (converted from cfg to data.lammps)
    
2298  atoms
1  atom types
0.0   13.4375  xlo xhi
0.0   13.4375  ylo yhi
0.0   12.952  zlo zhi
0.0  0.0 0.0 xy xz yz
    
    
    
Atoms
  
1 1 13.3754 13.2422 1.5487
2 1 0.45178 0.470705 12.8268
3 1 13.43 0.347761 2.40861
4 1 0.462723 13.2735 0.657047
5 1 1.04217 13.2142 1.57494
6 1 2.18436 0.664064 12.175
7 1 1.19144 0.485481 2.23517
8 1 1.61288 0.0544848 0.736333
9 1 2.18718 0.0562691 1.44459
10 1 2.70161 1.31078 0.744626
11 1 2.33353 0.666422 2.38788
12 1 2.84414 0.179796 0.674399
13 1 3.29148 0.272441 1.57635
14 1 3.93584 0.888779 12.9381
15 1 3.43862 0.81586 2.4886
16 1 3.93805 0.33199 0.866534
17 1 0.0414476 0.904082 1.56767
18 1 0.405049 1.54758 12.9499
19 1 13.4185 1.37643 2.33962
20 1 0.63764 1.01122 0.763318
21 1 1.19112 1.07376 1.54122
22 1 1.61892 1.71383 12.8037
23 1 1.00421 1.57193 2.37538
24 1 1.66759 1.12391 0.703585
25 1 2.31933 1.17355 1.65413
26 1 2.77217 1.90135 0.0211181
27 1 2.16846 1.87864 2.39186
28 1 3.24268 1.44516 1.67108
29 1 3.74955 1.48416 0.78955
30 1 3.90052 2.04943 0.0542364
31 1 4.99667 1.99102 3.31565
32 1 4.93218 1.42213 0.800918
33 1 13.3551 2.05583 1.58027
34 1 0.498847 2.65106 0.0449425
35 1 13.3717 2.49404 2.35807
36 1 0.419082 2.04953 0.779236
37 1 1.02591 2.26791 1.67304
38 1 1.61704 2.87263 0.105779
39 1 1.04214 2.82006 2.43145
40 1 1.57845 2.18912 0.728634
41 1 2.08049 2.2878 1.6369
42 1 2.80873 2.98994 0.0413958
43 1 2.23315 2.96039 2.40286
44 1 2.67304 2.41956 0.864394
45 1 3.32738 2.48089 1.54094
46 1 3.94955 3.08483 12.9149
47 1 2.75246 3.02606 3.3035
48 1 3.81239 2.66311 0.823872
49 1 13.2593 3.13478 1.79074
50 1 0.699163 3.72146 0.0544098
51 1 13.3525 3.73827 2.50542
52 1 0.322492 3.25764 0.816877
53 1 0.858461 3.32265 1.53372
54 1 1.60735 3.95377 0.0430737
55 1 1.25024 3.82082 2.28124
56 1 1.48511 3.23478 0.99629
57 1 2.23357 3.49809 1.50375
58 1 2.7384 4.13956 0.0794241
59 1 2.14788 4.00734 2.45961
60 1 2.7062 3.55848 0.789156
61 1 3.30726 3.65054 1.5655
62 1 3.80186 4.18729 12.9266
63 1 3.24219 4.06758 2.50441
64 1 3.94991 3.6923 0.838514
65 1 0.641324 0.367658 3.17789
66 1 0.644351 13.2426 4.08397
67 1 1.65576 0.671442 3.18273
68 1 1.75955 0.0250163 4.10621
69 1 2.76276 0.762526 3.29688
70 1 2.83281 0.0924894 4.09255
71 1 4.0038 0.806724 3.19547
72 1 3.80185 0.31319 4.03587
73 1 0.3488 1.47025 3.26371
74 1 0.580753 0.96723 3.96471
75 1 1.49476 1.62156 3.09435
76 1 1.68927 1.1316 4.06914
77 1 2.73261 1.95494 3.08541
78 1 2.63332 1.30475 3.89917
79 1 3.84928 2.62772 4.04066
80 1 4.55791 2.01431 2.29507
81 1 0.451493 2.51416 3.1813
82 1 0.694617 2.06821 4.05799
83 1 1.61489 2.74821 3.15471
84 1 1.59445 2.11882 4.04488
85 1 2.7606 2.32485 3.99889
86 1 3.26647 2.53644 4.8588
87 1 3.26291 2.97113 2.35511
88 1 4.43338 2.5309 4.79899
89 1 0.577091 3.66587 3.10191
90 1 0.562173 3.22825 4.07185
91 1 1.63657 3.92173 3.29257
92 1 1.70674 3.15515 4.04492
93 1 2.68401 4.06877 3.3189
94 1 2.73512 3.51428 4.12842
95 1 3.8042 4.35867 3.3036
96 1 3.78182 3.1393 3.27415
97 1 4.38519 0.322028 1.67403
98 1 5.18959 0.822685 0.137469
99 1 4.45929 0.930892 2.45398
100 1 5.01345 0.268473 0.856864
101 1 5.59542 0.416333 1.69481
102 1 6.18711 0.689924 0.0683774
103 1 5.41499 0.913143 2.5676
104 1 6.19841 0.186866 0.88213
105 1 6.71429 0.185881 1.52354
106 1 7.25276 0.837041 12.9486
107 1 6.63452 0.666309 2.47558
108 1 7.43352 0.186531 0.829221
109 1 7.84324 0.0632182 1.72027
110 1 8.4492 0.60882 12.8518
111 1 7.75783 0.485557 2.46864
112 1 8.4293 0.097279 0.70277
113 1 4.31025 1.40829 1.55793
114 1 4.95269 1.99935 12.9318
115 1 3.50262 1.96756 2.46517
116 1 5.52903 1.31792 1.68333
117 1 6.02853 1.44176 0.860049
118 1 6.20411 2.43223 0.723089
119 1 5.48547 2.12615 2.48821
120 1 6.11292 1.79581 0.00503439
121 1 6.68461 1.22365 1.59352
122 1 7.32983 1.87065 0.0437798
123 1 6.50742 1.77306 2.28153
124 1 7.18502 1.38261 0.801981
125 1 7.86103 1.16102 1.63094
126 1 8.42659 1.62923 12.8434
127 1 7.67639 1.67287 2.36383
128 1 8.32777 1.14914 0.862814
129 1 4.47907 2.74572 1.56814
130 1 4.98348 3.06315 0.0690505
131 1 4.40274 3.20324 2.45165
132 1 5.11445 2.60014 0.890146
133 1 5.66671 2.46381 1.55854
134 1 6.03211 2.94202 12.9363
135 1 5.60617 3.16342 2.48971
136 1 6.66434 2.54713 1.76703
137 1 7.81985 2.99432 2.38488
138 1 7.78262 2.88401 12.1539
139 1 6.77589 3.14218 2.41753
140 1 7.32316 2.41673 0.895176
141 1 7.82695 2.34834 1.72189
142 1 8.36037 2.65626 12.9136
143 1 7.83183 3.57913 1.53865
144 1 8.36832 2.12943 0.803982
145 1 4.46061 3.82017 1.64161
146 1 5.0331 4.19951 0.0185293
147 1 4.34975 4.24952 2.52115
148 1 5.11478 3.74484 0.803078
149 1 5.5605 3.52093 1.66767
150 1 6.15944 4.1097 12.8957
151 1 5.51389 4.35581 2.24527
152 1 6.08682 3.58183 0.846737
153 1 7.26814 4.03634 0.0866055
154 1 6.74481 4.19499 12.115
155 1 6.62621 3.61398 1.58446
156 1 7.28733 3.39756 0.891543
157 1 7.84419 4.05047 2.51186
158 1 8.45293 3.88137 0.0742374
159 1 8.43372 3.96852 3.13345
160 1 8.44294 3.22823 0.711661
161 1 4.95067 0.43907 3.96664
162 1 4.52019 0.246628 4.77481
163 1 6.02258 0.910533 3.19988
164 1 6.12436 0.447205 3.92087
165 1 7.19913 0.699099 3.25929
166 1 7.25117 0.0313256 4.04122
167 1 8.28246 0.666661 3.15157
168 1 8.3709 0.206964 3.92909
169 1 4.87977 1.28067 3.91371
170 1 3.77388 1.49409 4.07774
171 1 6.20284 2.12361 3.18408
172 1 6.04729 1.63098 4.00792
173 1 7.2062 1.92954 3.11037
174 1 7.18781 1.29266 3.84849
175 1 8.3354 1.69791 3.25432
176 1 8.16649 1.10113 4.19079
177 1 4.82284 3.10236 3.2784
178 1 5.05669 2.47872 4.14609
179 1 6.1511 3.14022 3.23955
180 1 6.05611 2.676 4.13237
181 1 7.18169 2.9267 3.25345
182 1 7.08425 2.45848 4.18056
183 1 8.28258 2.90376 3.31891
184 1 8.40975 2.17928 3.99849
185 1 4.92157 3.70175 3.95624
186 1 4.49621 3.71349 4.84138
187 1 6.53889 4.16401 2.46765
188 1 5.98541 3.73064 4.0886
189 1 7.08537 4.03891 3.25388
190 1 7.21919 3.5352 4.02967
191 1 8.38754 5.0276 3.30618
192 1 7.836 3.54692 4.96347
193 1 8.85534 13.3948 1.66523
194 1 9.55108 0.482569 12.909
195 1 8.91051 0.583656 2.42816
196 1 9.6408 13.1939 0.811088
197 1 10.0967 13.1937 1.68496
198 1 10.7608 0.160273 12.8771
199 1 10.0871 0.368102 2.34023
200 1 10.7568 12.9979 0.797803
201 1 11.2191 12.999 1.63651
202 1 11.8185 0.200885 0.029677
203 1 11.2578 0.162336 2.45785
204 1 11.8111 13.0374 0.758152
205 1 12.311 13.1102 1.69796
206 1 12.9128 0.330782 12.9297
207 1 12.2877 0.256302 2.50541
208 1 12.9024 13.0494 0.703608
209 1 9.01551 1.04602 1.548
210 1 9.5143 2.64642 12.8877
211 1 8.95502 1.57246 2.45832
212 1 9.48276 0.716432 0.800623
213 1 10.0402 1.04558 1.51545
214 1 10.5866 1.39203 0.0603431
215 1 10.0464 1.53237 2.41267
216 1 10.606 0.792619 0.714669
217 1 11.1061 0.6068 1.64997
218 1 11.7764 1.19922 12.7951
219 1 11.2321 1.22147 2.34418
220 1 11.6155 0.746445 0.823385
221 1 12.3693 0.661102 1.46622
222 1 12.8208 1.405 0.102086
223 1 12.2726 1.31864 2.28784
224 1 12.8122 0.831242 0.858912
225 1 8.99129 2.10375 1.59076
226 1 8.932 2.6914 12.1223
227 1 8.71402 2.63383 2.48211
228 1 9.41 1.97961 0.813004
229 1 10.3493 1.91194 1.06045
230 1 10.1515 2.46581 12.2032
231 1 9.94986 2.39839 2.248
232 1 10.5335 3.09456 0.699359
233 1 11.0613 1.87062 1.64427
234 1 11.518 2.40752 12.9317
235 1 11.0805 2.41661 2.61993
236 1 11.614 1.78313 0.766796
237 1 12.1795 1.85956 1.58814
238 1 12.7762 2.46425 12.8101
239 1 12.2452 2.50673 2.32108
240 1 12.6122 2.07882 0.82452
241 1 8.84013 3.21198 1.58746
242 1 9.56398 3.75295 12.9186
243 1 9.01522 3.75708 2.27802
244 1 9.53958 3.14978 0.804554
245 1 10.0438 2.99358 1.67471
246 1 10.6619 3.57489 12.8852
247 1 10.1352 3.63339 2.3004
248 1 10.5575 2.31372 0.212084
249 1 11.1242 2.83956 1.60642
250 1 11.7347 3.50059 12.9359
251 1 11.1379 3.43778 2.41385
252 1 11.6208 2.95065 0.846299
253 1 12.2416 3.07326 1.5981
254 1 12.8407 3.65757 0.0710773
255 1 12.2076 3.54308 2.56749
256 1 12.7501 3.0344 0.802685
257 1 9.56092 0.369877 3.18232
258 1 9.34 13.2172 4.0617
259 1 10.5521 0.291043 3.19826
260 1 10.5871 13.0575 4.10836
261 1 11.6484 0.153264 3.30453
262 1 11.8515 13.226 4.09084
263 1 12.9334 0.286758 3.22719
264 1 12.9424 13.1019 4.01301
265 1 9.48533 1.61164 3.44356
266 1 9.44769 0.996305 3.97136
267 1 10.6363 1.3302 3.16621
268 1 10.6257 0.764936 4.07327
269 1 11.723 1.31746 3.16724
270 1 11.7786 0.850164 4.05706
271 1 12.7058 1.44592 3.13567
272 1 12.8369 0.84722 3.92058
273 1 9.43447 2.6638 3.09329
274 1 9.55858 2.3438 4.06482
275 1 10.4544 2.48321 3.22493
276 1 10.708 1.85898 3.914
277 1 11.7606 2.4703 3.10875
278 1 11.809 1.92616 3.97389
279 1 12.8256 2.45738 3.16467
280 1 12.9494 1.8725 4.13785
281 1 9.43622 3.65839 3.0765
282 1 9.39318 3.34923 3.9626
283 1 10.5292 3.58191 3.27103
284 1 10.6193 3.01519 4.01022
285 1 11.6311 3.56657 3.40494
286 1 11.703 2.95601 4.08958
287 1 12.8038 3.55379 3.25511
288 1 12.9294 2.80146 3.99836
289 1 13.3628 4.21432 1.59627
290 1 0.529458 4.87741 0.0433054
291 1 0.00929167 4.87886 2.52049
292 1 0.399412 4.38427 0.783678
293 1 0.862534 4.50108 1.67434
294 1 1.64382 5.00962 0.0727203
295 1 1.14484 5.03621 2.39603
296 1 1.48303 4.36316 0.933369
297 1 2.07295 4.56432 1.57553
298 1 2.66986 5.20519 12.9182
299 1 2.2836 5.05528 2.4628
300 1 2.85922 4.68902 0.81691
301 1 3.32171 4.59337 1.64032
302 1 3.87998 5.36756 0.0566729
303 1 3.42748 5.16339 2.38847
304 1 3.96054 4.79682 0.800953
305 1 13.4134 5.3393 1.71859
306 1 0.548785 5.99949 0.147899
307 1 0.155444 5.91642 2.42793
308 1 0.555444 5.53272 0.944364
309 1 1.25639 5.63684 1.67969
310 1 1.67038 6.08758 0.124744
311 1 1.2289 6.18568 2.61118
312 1 1.73436 5.42018 0.91523
313 1 2.26945 5.69074 1.76882
314 1 2.78964 6.40899 12.8765
315 1 2.23644 6.32276 2.42345
316 1 2.85356 5.82809 0.796095
317 1 3.37976 5.7559 1.67952
318 1 3.97472 6.38831 12.8821
319 1 3.30095 6.37479 2.44203
320 1 3.8679 5.8993 0.867342
321 1 0.0345399 6.50251 1.71973
322 1 0.618804 7.20716 0.025628
323 1 0.0558062 7.14462 2.52232
324 1 0.675646 6.67684 0.85469
325 1 1.23917 6.68612 1.60618
326 1 1.67889 7.35033 0.0587617
327 1 1.25301 7.21603 2.29271
328 1 1.84168 6.62131 0.829327
329 1 2.40973 6.81956 1.57684
330 1 2.77423 7.47626 0.0308452
331 1 2.27295 7.49794 2.40842
332 1 2.96787 6.96139 0.854113
333 1 3.45181 6.9191 1.68745
334 1 3.86581 7.48068 12.8649
335 1 3.42091 7.52621 2.33745
336 1 3.94998 6.96955 0.7693
337 1 13.3035 7.51281 1.53853
338 1 0.652818 8.17848 0.0260185
339 1 13.3856 8.10546 2.39561
340 1 0.537929 7.64443 0.99006
341 1 1.1726 7.86055 1.64435
342 1 1.65473 8.33787 12.9299
343 1 1.10992 8.36921 2.52558
344 1 1.77472 7.74754 0.810559
345 1 2.32916 7.97002 1.59329
346 1 2.8531 8.54771 0.1231
347 1 2.36313 8.48133 2.38045
348 1 2.85933 8.08096 0.84439
349 1 3.48171 8.11794 1.55204
350 1 4.01422 8.74092 0.0774017
351 1 2.85527 9.82154 3.30206
352 1 4.05657 8.17848 0.735791
353 1 0.638078 4.79885 3.16245
354 1 0.470106 4.28658 4.01187
355 1 1.6441 5.01486 3.25692
356 1 1.63983 4.39557 4.1224
357 1 2.73253 5.24212 3.23317
358 1 2.73045 4.72182 3.99782
359 1 3.84097 5.41991 3.3161
360 1 3.86575 4.7608 4.11173
361 1 0.553679 6.03729 3.35926
362 1 0.532462 5.37157 3.96638
363 1 1.70301 6.04267 3.32932
364 1 1.69139 5.4974 4.16233
365 1 2.80517 6.33754 3.20401
366 1 2.84114 5.831 4.09049
367 1 3.88352 6.44026 3.22577
368 1 3.94885 5.8879 4.10577
369 1 0.751731 7.13111 3.26635
370 1 0.598176 6.59037 4.14263
371 1 1.84125 7.28824 3.27534
372 1 1.77152 6.73333 4.05462
373 1 2.94866 7.50058 3.17602
374 1 2.82287 6.90524 4.04251
375 1 5.02509 7.66803 3.24863
376 1 3.41353 7.00333 4.68893
377 1 0.499227 8.18217 3.24999
378 1 0.537696 7.63613 4.00025
379 1 1.69807 8.40794 3.15306
380 1 1.61534 7.9193 4.0775
381 1 3.96314 8.69676 3.23715
382 1 2.77354 8.03204 3.96382
383 1 3.9511 7.62194 3.18161
384 1 3.92624 8.19378 4.05752
385 1 4.4372 4.76277 1.6817
386 1 5.02415 5.33639 12.7861
387 1 4.47935 5.47308 2.38788
388 1 4.91169 4.9382 0.801374
389 1 5.56388 5.43857 2.43771
390 1 6.11258 4.63867 0.832952
391 1 6.18727 5.30695 3.29249
392 1 5.52605 4.85958 1.4785
393 1 6.69052 4.78171 1.70742
394 1 6.74176 5.34106 12.1919
395 1 6.65574 5.27134 2.47699
396 1 7.25178 4.60498 0.790884
397 1 7.69822 4.60323 1.68515
398 1 8.50891 4.8997 12.851
399 1 7.89956 5.20166 2.40618
400 1 8.32389 4.49294 0.84647
401 1 4.52904 5.92476 1.58482
402 1 5.02061 6.46997 0.00614423
403 1 4.5592 6.5476 2.47449
404 1 5.11812 5.91054 0.704554
405 1 5.61417 5.979 1.66541
406 1 6.10917 6.40145 12.9413
407 1 6.2758 6.60074 3.3347
408 1 6.11842 5.71275 0.740183
409 1 6.64162 5.75563 1.50537
410 1 7.32106 5.77649 0.907526
411 1 6.82425 6.34872 2.42179
412 1 7.22193 5.24482 0.178912
413 1 7.78897 5.77119 1.74443
414 1 8.39207 5.97915 12.952
415 1 7.91016 6.28718 2.52304
416 1 8.40553 5.55878 0.802766
417 1 4.54436 7.06376 1.65915
418 1 5.05239 7.57812 0.00594922
419 1 4.46413 7.66271 2.4488
420 1 4.90305 7.06018 0.83394
421 1 5.79281 6.49109 2.54408
422 1 6.23069 7.56295 0.0529948
423 1 5.61499 7.01409 1.55923
424 1 6.20233 6.9623 0.813818
425 1 6.75467 6.86218 1.64172
426 1 7.30141 7.50553 0.0321286
427 1 6.75146 7.54555 2.38095
428 1 7.29664 6.90356 0.849243
429 1 7.94003 6.77336 1.51493
430 1 8.48335 6.55002 0.679648
431 1 7.71193 7.34277 2.51765
432 1 8.89607 6.67063 1.64788
433 1 4.45665 8.19865 1.59746
434 1 5.11249 8.71489 12.9441
435 1 4.48298 8.90504 2.3485
436 1 5.03694 8.17446 0.896658
437 1 5.65345 7.5863 2.3192
438 1 6.22702 8.65452 12.9466
439 1 5.54735 8.2298 1.73982
440 1 6.04769 8.15467 0.861728
441 1 6.74615 7.97854 1.5714
442 1 7.39283 8.56704 12.9439
443 1 6.63349 8.63087 2.32095
444 1 7.26335 8.06925 0.843547
445 1 7.93789 7.79672 1.66179
446 1 8.36296 7.78988 0.774456
447 1 7.82107 9.03375 1.56688
448 1 8.42674 7.1847 12.8944
449 1 4.96434 5.38482 3.28437
450 1 4.98113 4.32581 3.11586
451 1 6.063 5.915 3.97019
452 1 5.97351 4.27791 3.18131
453 1 7.30213 5.17746 3.13422
454 1 7.37971 4.67462 3.97249
455 1 8.45247 5.62093 4.01597
456 1 8.31167 3.37887 4.10475
457 1 4.98084 6.13116 4.01469
458 1 4.54409 5.39489 5.70823
459 1 6.23343 7.08671 4.06909
460 1 6.05934 7.65159 3.26304
461 1 7.26728 6.25106 3.34378
462 1 8.4577 6.23339 6.39189
463 1 8.37769 6.19756 3.29496
464 1 7.71643 5.93014 5.746
465 1 5.06312 8.11324 4.12243
466 1 5.16435 6.55471 3.15881
467 1 6.16273 8.63659 3.25514
468 1 5.11055 7.07506 4.04666
469 1 6.14086 8.19369 4.14448
470 1 7.19502 7.3915 3.27206
471 1 8.42921 7.29457 3.10959
472 1 8.38695 6.77301 4.03891
473 1 5.00118 8.72342 3.26574
474 1 4.42061 8.32401 4.87
475 1 5.56049 8.09617 4.93195
476 1 6.67992 7.98201 4.89906
477 1 7.27137 8.54715 3.10524
478 1 6.59503 9.21838 4.98995
479 1 7.81591 8.45586 2.31413
480 1 8.31679 7.78358 4.01204
481 1 8.85965 4.44996 1.58223
482 1 9.58721 4.804 0.00493757
483 1 8.93469 4.95029 2.41968
484 1 9.446 4.15879 0.870058
485 1 10.0123 4.20364 1.60127
486 1 10.558 4.56488 0.111819
487 1 9.97771 4.76337 2.52507
488 1 10.6761 4.05752 0.956746
489 1 11.247 4.07811 1.73179
490 1 11.6453 4.58078 12.8766
491 1 11.2167 4.6296 2.3516
492 1 11.7752 4.18436 0.819529
493 1 12.3436 4.1402 1.61567
494 1 12.8292 4.82358 12.9358
495 1 12.4213 4.6261 2.5177
496 1 12.8096 4.28342 0.792813
497 1 9.04153 5.52651 1.49474
498 1 9.71961 5.90407 0.159281
499 1 9.51418 6.19383 3.16985
500 1 9.5695 5.29581 0.805692
501 1 10.112 5.26465 1.66731
502 1 10.7455 5.75704 0.00107105
503 1 10.1452 5.86941 2.31232
504 1 10.6952 5.24991 0.809044
505 1 11.1357 5.26642 1.66346
506 1 11.8343 5.7976 12.8835
507 1 11.2355 5.7949 2.45351
508 1 11.7324 5.23848 0.789983
509 1 12.2728 5.24634 1.67144
510 1 12.8541 5.8821 0.0218151
511 1 12.3187 5.78499 2.39769
512 1 12.7911 5.41452 0.89635
513 1 9.0085 6.01636 2.3928
514 1 9.66336 7.157 12.865
515 1 8.93498 7.1807 2.35002
516 1 9.48595 6.61185 0.738488
517 1 9.96326 6.3862 1.60842
518 1 10.6291 6.81748 12.9366
519 1 10.1621 6.99891 2.40199
520 1 10.6276 6.36962 0.924081
521 1 11.2823 6.27312 1.5004
522 1 11.8703 6.92461 0.0148688
523 1 11.1579 6.83756 2.3118
524 1 11.7997 6.31857 0.743016
525 1 12.3635 6.45156 1.65172
526 1 12.9466 6.92313 0.0842329
527 1 12.3235 7.03286 2.47682
528 1 12.8484 6.42956 0.888018
529 1 8.96135 7.90739 1.67647
530 1 10.0326 8.17478 12.1273
531 1 8.38753 8.39789 3.21535
532 1 9.417 7.65856 0.826722
533 1 10.0377 7.51558 1.66304
534 1 10.5467 8.06164 0.0347066
535 1 10.1685 8.16225 2.3965
536 1 10.7115 7.46655 0.754037
537 1 11.1594 7.4444 1.63818
538 1 11.7984 8.10246 0.0121636
539 1 11.2509 8.05672 2.57659
540 1 11.7166 7.42149 0.734928
541 1 12.1641 7.52027 1.57938
542 1 12.9778 8.21995 0.0219229
543 1 12.3964 8.09873 2.33106
544 1 12.8767 7.60759 0.673816
545 1 9.47982 4.93107 3.3106
546 1 9.61071 4.28675 4.00601
547 1 10.6333 4.56884 3.14798
548 1 10.6288 4.13802 4.10878
549 1 11.7103 4.70706 3.19711
550 1 11.7779 4.11513 4.04565
551 1 12.8396 4.83442 3.36299
552 1 12.7708 4.21263 3.95514
553 1 9.46641 6.58597 4.1357
554 1 9.48807 5.53528 3.98516
555 1 10.6014 5.72459 3.20926
556 1 10.5862 5.22892 3.97466
557 1 11.8156 5.81939 3.24334
558 1 11.7203 5.25957 4.14605
559 1 12.975 5.89623 3.24273
560 1 12.848 5.47198 4.08168
561 1 9.52814 8.14511 3.20622
562 1 9.51351 7.12943 3.18359
563 1 10.672 6.99447 3.22108
564 1 10.6306 6.4032 3.89547
565 1 11.7464 6.82605 3.17878
566 1 11.756 6.37044 4.00581
567 1 12.9631 6.81422 3.22225
568 1 12.8396 6.45691 4.13468
569 1 9.02127 8.44627 2.49658
570 1 8.94521 7.8319 4.70612
571 1 10.6687 8.12888 3.26219
572 1 10.7684 7.55196 4.03561
573 1 11.8744 8.01628 3.27032
574 1 11.8235 7.46848 4.10503
575 1 12.8312 7.97776 3.20202
576 1 12.9628 7.54025 4.05127
577 1 0.0963045 8.82017 1.61966
578 1 0.570705 9.32201 12.857
579 1 13.3507 9.34191 2.52319
580 1 0.731187 8.8404 0.799317
581 1 1.08704 8.9351 1.70314
582 1 1.73485 9.41094 12.9431
583 1 1.0815 9.56743 2.52432
584 1 1.80291 8.84792 0.782871
585 1 2.07638 9.08204 1.72738
586 1 2.91394 9.63367 0.0148887
587 1 2.25628 9.61784 2.4988
588 1 2.72519 9.22686 0.958716
589 1 3.3562 9.24947 1.67447
590 1 4.03689 9.89865 12.9415
591 1 3.44974 8.63804 2.38906
592 1 3.86012 9.3443 0.862165
593 1 0.0757358 9.82871 1.58552
594 1 0.563833 10.5149 0.0232382
595 1 13.421 10.4877 2.54472
596 1 0.639066 9.90666 0.73413
597 1 1.16467 9.94532 1.65266
598 1 1.66747 10.6359 0.0629567
599 1 1.14083 10.5658 2.44492
600 1 1.72809 10.0136 0.789954
601 1 2.34044 10.1373 1.51215
602 1 2.74172 10.7009 12.934
603 1 2.10394 10.7051 2.47137
604 1 2.86926 10.2713 0.7577
605 1 3.45311 10.4302 1.68323
606 1 3.87043 10.9069 12.9388
607 1 3.23773 10.9454 2.47761
608 1 3.97407 10.4208 0.887546
609 1 13.4298 10.8526 1.6978
610 1 0.501191 11.635 0.0561167
611 1 0.0324076 11.7065 2.25055
612 1 0.594713 11.0803 0.803945
613 1 1.05326 11.0215 1.59189
614 1 1.66641 11.6737 0.0145788
615 1 1.09612 11.6626 2.43621
616 1 1.74767 11.1789 0.950011
617 1 2.32036 11.1987 1.67425
618 1 2.83511 11.8033 12.8918
619 1 2.21791 11.8997 2.44485
620 1 2.84219 11.4466 0.807631
621 1 3.37172 11.4666 1.6644
622 1 3.96293 12.0918 0.0480996
623 1 3.38531 12.0758 2.34803
624 1 3.92422 11.5593 0.754196
625 1 0.133829 12.1541 1.47999
626 1 0.613636 12.7635 12.8369
627 1 13.418 12.7532 2.30821
628 1 0.63515 12.2886 0.735564
629 1 1.30558 12.1033 1.58145
630 1 1.50738 0.524875 12.804
631 1 1.21754 12.7926 2.45837
632 1 1.75568 12.4053 0.72956
633 1 2.27686 12.4 1.66797
634 1 2.89046 12.9917 12.9131
635 1 2.32008 13.0999 2.31731
636 1 2.72566 12.4565 0.825737
637 1 3.36644 12.5624 1.54797
638 1 4.06744 13.3002 12.95
639 1 3.36218 13.2091 2.3662
640 1 3.87974 12.6906 0.811734
641 1 0.649706 9.34316 3.3386
642 1 0.572178 8.82412 4.06965
643 1 1.78559 9.44764 3.31512
644 1 1.52462 8.95173 4.15113
645 1 2.87725 8.67405 3.26618
646 1 2.73268 9.21025 4.16562
647 1 3.18489 9.83859 2.4285
648 1 3.85827 9.82776 3.26424
649 1 0.57402 10.4513 3.38091
650 1 0.482434 9.91213 4.0662
651 1 1.62344 10.6991 3.40006
652 1 1.7723 10.067 4.0385
653 1 2.78512 11.0147 3.26274
654 1 2.75367 10.3491 4.15237
655 1 3.87069 10.861 3.3001
656 1 3.91782 10.3896 4.10792
657 1 0.628892 11.5287 3.21045
658 1 0.62963 11.1084 4.08976
659 1 1.73965 11.8262 3.22322
660 1 1.74405 11.2598 4.12153
661 1 2.86779 11.9627 3.21347
662 1 2.89011 11.4349 4.0967
663 1 3.90166 12.1642 3.27803
664 1 3.97062 11.4932 4.01877
665 1 0.580883 12.71 3.05852
666 1 0.589896 12.1451 3.97774
667 1 1.67355 13.061 3.22831
668 1 1.60405 12.3217 3.87547
669 1 2.7559 13.1394 3.14478
670 1 2.72908 12.5525 4.05787
671 1 3.88285 13.1349 3.27543
672 1 3.88313 12.6031 4.08744
673 1 4.40944 9.42932 1.55838
674 1 4.991 9.87015 0.0239349
675 1 4.38849 9.90978 2.58457
676 1 5.05773 9.27022 0.865718
677 1 5.56404 9.37053 1.67254
678 1 6.09736 11.0094 12.8873
679 1 5.57361 9.8015 2.58118
680 1 6.18829 9.33697 0.747341
681 1 6.60797 9.20599 1.66967
682 1 7.35713 9.67742 12.8992
683 1 6.82524 9.78176 2.47291
684 1 7.29258 9.14429 0.816817
685 1 8.43071 8.89636 0.706068
686 1 8.37778 9.56982 0.0353744
687 1 7.82616 10.1337 1.50418
688 1 8.44503 8.35787 12.9229
689 1 4.60456 10.4653 1.71272
690 1 4.96891 11.0466 0.0434344
691 1 4.41786 11.0999 2.56435
692 1 4.99006 10.4501 0.800818
693 1 5.52921 10.3713 1.80094
694 1 5.51655 10.9338 12.2143
695 1 5.64243 11.0831 2.46961
696 1 6.12032 9.7949 0.00501912
697 1 6.06929 10.3641 0.779394
698 1 7.37048 10.6633 12.8586
699 1 6.72349 10.7389 2.36142
700 1 6.62846 10.3377 1.5831
701 1 7.24809 10.3659 0.863178
702 1 8.46788 10.7164 0.0369193
703 1 7.8129 10.6058 2.40595
704 1 8.45541 10.0482 0.839769
705 1 4.47525 11.4793 1.52493
706 1 4.98476 12.1959 0.0780524
707 1 4.48165 12.0819 2.47027
708 1 5.10395 11.5198 0.842039
709 1 5.58538 11.5045 1.69052
710 1 6.1803 12.0494 12.7559
711 1 5.55856 12.2074 2.42256
712 1 6.11628 11.4234 0.828279
713 1 6.70338 11.5291 1.64213
714 1 7.29194 11.7137 0.0355988
715 1 6.6441 11.9285 2.5378
716 1 7.17296 11.3754 0.82636
717 1 7.77062 11.2769 1.66493
718 1 8.4741 11.7693 0.207144
719 1 7.91876 11.7742 2.44938
720 1 8.33296 11.1802 0.916866
721 1 4.43841 12.5538 1.56806
722 1 5.09361 13.1588 12.8339
723 1 4.45741 13.1108 2.33655
724 1 5.17345 12.6851 0.906871
725 1 5.70524 12.5875 1.5111
726 1 6.1228 13.1278 12.9158
727 1 5.59699 13.2366 2.43556
728 1 6.3386 12.497 0.83012
729 1 6.8196 12.6078 1.75182
730 1 7.35961 13.0602 0.0772904
731 1 6.66204 13.1414 2.52862
732 1 7.27282 12.4542 0.664987
733 1 7.80767 12.3944 1.53958
734 1 8.40944 12.8863 0.144415
735 1 7.91322 12.7946 2.5617
736 1 8.52384 12.3158 0.900777
737 1 5.01498 9.86933 3.29931
738 1 5.11298 9.25025 4.02656
739 1 6.25877 9.74974 3.32921
740 1 6.1967 9.29785 4.14591
741 1 7.82726 9.68606 2.38621
742 1 7.24969 9.12913 4.19128
743 1 8.31886 9.5282 3.24041
744 1 9.04982 8.94146 4.86302
745 1 5.07138 10.9306 3.19139
746 1 5.00771 10.4564 4.00446
747 1 6.17299 10.9504 3.17184
748 1 6.21538 10.4579 4.03767
749 1 7.21144 10.8529 3.25346
750 1 7.33126 10.2383 3.97774
751 1 8.29756 10.6632 3.27164
752 1 8.35569 10.0657 4.13583
753 1 5.0261 12.0869 3.29036
754 1 5.05284 11.6503 4.06552
755 1 6.2287 11.9903 3.33473
756 1 6.1802 11.4756 4.12555
757 1 7.36883 11.7912 3.16683
758 1 7.32217 11.323 4.20989
759 1 8.47775 11.72 3.2644
760 1 8.42967 11.2247 4.0451
761 1 4.93562 0.0603543 3.07282
762 1 5.04948 12.9113 3.76078
763 1 6.03981 13.0995 3.32023
764 1 6.14845 12.7016 4.16873
765 1 7.17313 12.9511 3.2526
766 1 7.23654 12.3803 4.05317
767 1 8.43269 12.9581 3.32734
768 1 8.33062 12.3423 4.03846
769 1 8.98496 8.90318 1.53321
770 1 9.57982 8.64081 0.884387
771 1 8.85374 9.41071 2.42939
772 1 9.58005 9.29558 0.0594015
773 1 10.1511 8.70155 1.69617
774 1 10.1254 9.27063 12.2139
775 1 9.98967 9.35234 2.36852
776 1 10.659 8.55822 0.804451
777 1 11.2656 8.51794 1.62989
778 1 11.7339 9.19966 0.116172
779 1 11.1532 9.19087 2.37387
780 1 11.8131 8.55336 0.859588
781 1 12.4565 8.5935 1.5341
782 1 12.8887 9.34858 0.143379
783 1 12.1356 9.1194 2.38395
784 1 13.0417 8.74648 0.834012
785 1 9.02789 9.9944 1.57426
786 1 9.51573 10.6007 0.116555
787 1 8.85862 10.5144 2.48917
788 1 9.63328 9.85724 0.709372
789 1 10.045 9.85598 1.58732
790 1 10.6793 9.68817 0.900663
791 1 10.1158 10.4048 2.46769
792 1 10.7678 9.19192 12.917
793 1 11.2787 9.67417 1.61452
794 1 11.6828 10.2853 12.8998
795 1 11.1714 10.304 2.32584
796 1 11.8488 9.70283 0.893976
797 1 12.5606 9.74575 1.64353
798 1 12.7757 10.5117 0.0199335
799 1 12.3196 10.3369 2.44424
800 1 12.9184 9.98772 0.76839
801 1 8.9589 11.1179 1.71952
802 1 9.51887 11.6783 0.0742902
803 1 9.03239 11.6758 2.44913
804 1 9.45464 11.1111 0.920079
805 1 10.1096 10.9205 1.56516
806 1 10.595 11.4248 12.9251
807 1 10.0449 11.3847 2.41051
808 1 10.7025 10.7975 0.813796
809 1 11.3051 10.8648 1.6083
810 1 11.7292 11.3998 12.8906
811 1 11.2727 11.3981 2.4583
812 1 11.7772 10.8134 0.739764
813 1 12.3182 10.7936 1.5639
814 1 12.8687 11.436 12.872
815 1 12.393 11.3881 2.45553
816 1 12.9582 11.0969 0.884164
817 1 8.99611 12.3014 1.70823
818 1 9.50273 12.7348 12.9027
819 1 8.89249 12.8132 2.45225
820 1 9.61579 12.0771 0.972696
821 1 10.1499 12.0114 1.6823
822 1 10.5961 12.594 12.8543
823 1 10.1263 12.5924 2.43868
824 1 10.6606 12.0402 0.796442
825 1 11.2958 11.9332 1.58994
826 1 11.7916 12.5324 12.8876
827 1 11.2813 12.4891 2.42012
828 1 11.6753 11.8936 0.720579
829 1 12.267 11.9476 1.54442
830 1 12.7673 12.5212 12.6887
831 1 12.3616 12.5469 2.48774
832 1 12.8732 12.0774 0.770821
833 1 9.55945 9.31821 3.28088
834 1 10.0911 8.7388 4.83639
835 1 10.6041 9.24148 3.1969
836 1 10.6686 8.65955 4.01473
837 1 11.7786 9.13491 3.27743
838 1 11.6924 8.64519 4.01736
839 1 12.9277 9.12686 3.16271
840 1 12.9586 8.7748 4.02819
841 1 9.50543 10.4838 3.26231
842 1 9.37021 9.91439 4.13626
843 1 10.7209 10.2965 3.2359
844 1 10.5793 9.84896 4.00276
845 1 11.7753 10.2634 3.17466
846 1 11.7326 9.74182 4.04389
847 1 12.918 10.338 3.29573
848 1 12.7789 9.72747 3.99712
849 1 9.51579 11.6935 3.24439
850 1 9.54752 10.9566 4.11021
851 1 10.7159 11.5445 3.1406
852 1 10.4893 11.005 3.92856
853 1 11.8582 11.2876 3.28772
854 1 11.7189 10.8706 4.03345
855 1 13.0209 11.5547 3.2694
856 1 12.887 11.0512 3.99897
857 1 9.66504 12.7719 3.17074
858 1 9.64745 12.0739 4.06692
859 1 10.724 12.7172 3.27936
860 1 10.7259 11.945 3.95738
861 1 11.8253 12.4848 3.29077
862 1 11.8466 11.9621 3.97975
863 1 12.9206 12.6008 3.20401
864 1 12.8443 12.1294 4.21614
865 1 13.4001 13.2688 4.8409
866 1 0.0413849 0.33792 5.60741
867 1 1.15068 13.3092 5.02132
868 1 1.06934 0.478934 5.71704
869 1 2.1865 0.044238 4.95182
870 1 2.25511 0.558284 5.66441
871 1 3.27239 0.307641 4.89614
872 1 3.45827 0.788713 5.74783
873 1 0.00902816 0.90632 4.77115
874 1 13.3973 1.40321 5.69012
875 1 1.03471 1.01666 4.77917
876 1 1.18871 1.49303 5.56694
877 1 2.20891 1.18305 4.86104
878 1 2.17094 1.79959 5.58467
879 1 3.33767 1.37197 4.8209
880 1 3.23382 1.88579 5.66422
881 1 13.2382 2.00321 4.98165
882 1 13.3771 2.67719 5.52847
883 1 1.00387 2.19481 4.95876
884 1 1.02823 2.71186 5.71941
885 1 2.12361 2.24671 4.76981
886 1 2.17722 2.79904 5.68624
887 1 3.27358 3.0871 5.71017
888 1 3.82722 3.1814 6.51527
889 1 13.352 3.27551 4.71572
890 1 0.0358494 3.73773 5.54496
891 1 1.18209 3.24029 4.85581
892 1 1.089 3.93617 5.56961
893 1 2.23835 3.3707 4.85023
894 1 2.17974 3.91464 5.72231
895 1 3.41702 3.67741 4.88472
896 1 3.36515 4.13567 5.65031
897 1 0.0198256 13.1697 7.99918
898 1 0.508335 0.56151 6.66057
899 1 0.587985 13.3291 7.23685
900 1 1.24534 13.3131 7.98984
901 1 1.65602 0.681523 6.6537
902 1 1.81328 13.3514 7.27902
903 1 2.27979 0.153583 8.23444
904 1 2.7963 0.713473 6.38443
905 1 2.79153 0.363046 7.27718
906 1 3.3669 0.243948 8.08377
907 1 4.0983 0.860884 6.56336
908 1 3.87851 0.381716 7.31425
909 1 13.4152 0.912424 8.0699
910 1 0.592899 1.61091 6.37624
911 1 0.530831 1.16306 7.36065
912 1 1.1394 0.91642 8.05039
913 1 1.58069 1.73287 6.47885
914 1 1.66759 1.18687 7.32293
915 1 2.25849 1.25787 8.06691
916 1 2.65021 1.86303 6.51329
917 1 2.82871 1.3473 7.29414
918 1 3.45063 0.771811 8.82289
919 1 3.87339 2.43819 7.12135
920 1 3.97565 1.50347 7.31967
921 1 13.4027 2.08099 8.15633
922 1 0.437628 2.59997 6.45691
923 1 0.511974 2.14237 7.37144
924 1 1.13189 2.06645 8.18724
925 1 1.63908 2.85653 6.45849
926 1 1.64013 2.22321 7.32765
927 1 2.20672 2.33244 8.01961
928 1 2.72213 2.98607 6.51477
929 1 2.78276 2.49966 7.23661
930 1 3.26946 2.02599 8.76765
931 1 3.37934 3.53906 8.08841
932 1 3.36945 2.60197 8.0373
933 1 0.0195713 3.19033 8.04863
934 1 0.569221 3.77193 6.4635
935 1 0.63548 3.16339 7.34268
936 1 1.11928 3.41306 8.23572
937 1 1.63383 3.94403 6.42909
938 1 1.71265 3.37581 7.39892
939 1 2.32735 3.49899 8.17516
940 1 2.75832 4.24473 6.53399
941 1 2.7317 3.65995 7.27256
942 1 3.37034 4.11132 9.03063
943 1 4.41838 4.37275 5.63141
944 1 3.77815 1.97784 6.31925
945 1 4.50291 0.764879 5.48956
946 1 4.38708 1.45624 4.86802
947 1 5.51228 0.26691 4.80407
948 1 5.66845 0.791389 5.63145
949 1 6.69789 0.341962 4.72449
950 1 6.74395 0.764295 5.5398
951 1 7.84122 0.00120078 4.87243
952 1 7.83516 0.645375 5.60746
953 1 3.96015 1.98625 3.35095
954 1 3.8763 3.71855 4.05973
955 1 5.49981 1.36231 4.78859
956 1 5.54189 1.87769 5.6249
957 1 6.58024 1.36825 4.73337
958 1 6.72206 1.96339 5.46354
959 1 7.73956 1.31453 4.93276
960 1 7.9362 1.88793 5.53462
961 1 4.42669 2.01772 5.58872
962 1 4.99078 3.72961 7.37234
963 1 5.60935 2.62508 4.93634
964 1 4.90361 3.2623 6.40524
965 1 6.62013 2.7025 5.06358
966 1 6.59689 3.79573 5.70883
967 1 7.83557 2.50423 4.71103
968 1 7.66918 2.90629 5.73893
969 1 5.52506 3.7448 4.95817
970 1 3.87189 4.31795 6.5424
971 1 4.98625 4.84353 4.00679
972 1 5.53419 4.81271 4.80995
973 1 6.72555 3.55879 4.84997
974 1 6.70735 4.57911 4.93294
975 1 7.78598 4.10165 5.75431
976 1 8.33805 3.85375 6.47856
977 1 4.48276 0.321633 8.05999
978 1 4.97327 0.915137 6.36727
979 1 5.13024 0.429196 7.27444
980 1 5.63855 0.273163 8.09781
981 1 6.09712 0.947439 6.36499
982 1 6.10335 0.369119 7.20982
983 1 6.76975 13.1331 8.89359
984 1 7.23331 0.756056 6.43926
985 1 6.72431 0.280791 8.0704
986 1 7.86412 0.119987 8.1012
987 1 8.33172 0.666208 6.35206
988 1 8.40283 13.2795 7.22751
989 1 4.54588 1.50528 8.05657
990 1 4.99222 1.92598 6.54852
991 1 5.10012 1.41463 7.359
992 1 5.69542 1.48984 8.22372