data.lammps (converted from cfg to data.lammps)
    
2298  atoms
1  atom types
0.0   13.4375  xlo xhi
0.0   13.4375  ylo yhi
0.0   12.952  zlo zhi
0.0  0.0 0.0 xy xz yz
    
    
    
Atoms
  
1 1 13.3874 13.3797 1.672
2 1 0.419883 0.316473 12.9336
3 1 0.00753418 0.395749 2.50621
4 1 0.43183 13.1978 0.782837
5 1 1.01727 13.1885 1.48356
6 1 1.70363 0.188176 12.9518
7 1 1.11678 0.191835 2.31385
8 1 1.70706 13.168 0.892403
9 1 2.30041 13.0283 1.65477
10 1 2.71221 0.130514 0.0437358
11 1 2.22056 0.333724 2.4341
12 1 2.843 12.9544 0.847398
13 1 3.47398 13.26 1.58465
14 1 3.79544 0.379067 0.00630145
15 1 3.24796 0.139423 2.51489
16 1 3.96719 13.1139 0.789283
17 1 0.00945398 0.951804 1.51169
18 1 0.558129 1.46647 12.9307
19 1 13.396 1.51201 2.4421
20 1 0.544899 0.923559 0.753959
21 1 1.17045 0.85898 1.72392
22 1 1.64542 1.50515 0.0968047
23 1 1.03095 1.42096 2.50084
24 1 1.52387 0.74164 0.727548
25 1 2.18961 0.70156 1.53464
26 1 2.65495 1.17268 0.095219
27 1 2.29186 1.38546 2.57914
28 1 2.87106 0.727752 0.954158
29 1 3.38957 0.888165 1.66898
30 1 3.738 1.41817 0.0207292
31 1 3.28191 1.24956 2.57531
32 1 3.97771 0.741022 0.80947
33 1 13.357 2.09543 1.75743
34 1 0.488215 2.65533 0.0034343
35 1 0.0266388 2.78836 2.42626
36 1 0.587943 2.0997 0.918197
37 1 1.08039 1.90661 1.64041
38 1 1.50046 2.55239 0.102581
39 1 1.08951 2.48368 2.36638
40 1 1.83457 1.9092 0.909951
41 1 2.20441 1.9338 1.71961
42 1 2.69833 2.35184 12.8869
43 1 2.11852 2.49146 2.57494
44 1 2.91435 2.03293 0.797391
45 1 3.31083 1.80381 1.56744
46 1 4.02821 2.52264 12.9505
47 1 3.32692 2.37756 2.43921
48 1 3.99457 1.85323 0.805502
49 1 13.3627 3.2447 1.53275
50 1 0.557453 3.65651 0.00789677
51 1 0.0819901 3.8196 2.32188
52 1 0.565947 3.10851 0.916227
53 1 1.22751 3.06961 1.55319
54 1 1.74479 3.67283 12.936
55 1 1.04291 3.58838 2.34736
56 1 1.80971 2.96027 0.7988
57 1 2.24455 2.92717 1.78102
58 1 2.81767 3.42416 0.0844517
59 1 2.22686 3.66126 2.46548
60 1 2.7628 3.00989 0.951068
61 1 3.4268 2.84878 1.71769
62 1 3.89353 3.61802 0.0856505
63 1 3.32078 3.60093 2.44711
64 1 3.95909 3.03252 0.792708
65 1 0.534064 0.473216 3.29328
66 1 0.607448 13.2828 3.97541
67 1 1.6644 0.111102 3.18342
68 1 1.60276 13.1339 4.00999
69 1 2.70415 0.0672771 3.35487
70 1 2.7577 12.9954 4.07096
71 1 3.92138 0.209622 3.20264
72 1 3.89825 13.1912 4.20839
73 1 0.44259 1.51329 3.25976
74 1 0.581089 1.02192 4.18089
75 1 1.67943 1.25336 3.23304
76 1 1.59171 0.782939 4.02248
77 1 2.83225 1.27156 3.45571
78 1 2.70533 0.734572 4.1108
79 1 3.88961 1.42413 3.39765
80 1 3.88861 0.701659 4.08949
81 1 0.517871 2.53893 3.23252
82 1 0.553096 2.03922 4.11214
83 1 1.53638 2.48338 3.35142
84 1 1.64041 1.87929 4.00661
85 1 2.80266 2.43422 3.28411
86 1 2.75539 1.91124 4.06562
87 1 3.94344 2.57949 3.17017
88 1 3.8577 1.94093 4.10295
89 1 0.66311 3.75919 3.32879
90 1 0.49491 3.16652 4.02707
91 1 1.6023 3.48983 3.14586
92 1 1.83699 3.01787 4.13367
93 1 2.86205 3.54079 3.23092
94 1 2.94077 3.08932 4.02639
95 1 3.99818 3.65008 3.22059
96 1 3.95811 2.92306 4.05923
97 1 4.3754 13.2158 1.73133
98 1 5.02248 0.550654 12.8437
99 1 4.61248 0.40368 2.62805
100 1 5.03733 0.00397995 0.766003
101 1 5.53255 13.3735 1.51522
102 1 6.18844 0.582716 0.0729915
103 1 5.57554 0.321545 2.42604
104 1 6.16005 13.3752 0.784666
105 1 6.64068 0.0112549 1.68048
106 1 7.2541 0.823536 0.0477483
107 1 6.76997 0.697597 2.52526
108 1 7.27342 0.128484 0.969681
109 1 7.93314 0.304189 1.73704
110 1 8.31315 0.954239 12.9438
111 1 7.75755 0.888848 2.34341
112 1 8.33176 0.301234 0.799158
113 1 4.46232 0.921904 1.67348
114 1 4.9094 1.56785 12.7705
115 1 4.42616 1.3248 2.44531
116 1 5.09035 1.12774 0.806639
117 1 5.59323 1.05249 1.74682
118 1 6.11502 1.78042 12.8718
119 1 5.51874 1.60098 2.47295
120 1 6.03045 1.17511 0.706187
121 1 6.59964 1.17481 1.54251
122 1 7.19367 1.98003 0.0784073
123 1 6.7031 1.74373 2.33321
124 1 7.23855 1.23111 0.923893
125 1 7.89237 1.55559 1.57981
126 1 8.32851 2.07386 12.9299
127 1 7.73067 1.91459 2.51792
128 1 8.48495 1.46991 0.788305
129 1 4.46469 1.98523 1.64461
130 1 5.17005 2.57957 12.9342
131 1 4.42466 2.54931 2.46066
132 1 5.05524 2.12565 0.932813
133 1 5.56828 2.21974 1.74
134 1 6.25552 2.96498 12.9317
135 1 5.53641 2.73583 2.48871
136 1 6.12186 2.24025 0.803247
137 1 6.60495 2.35789 1.51338
138 1 7.35456 3.04815 12.8822
139 1 6.71982 2.89622 2.33525
140 1 7.38403 2.50279 0.835293
141 1 7.84624 2.52077 1.67994
142 1 8.48637 3.1822 12.923
143 1 7.81721 3.07074 2.39979
144 1 8.44615 2.61113 0.752483
145 1 4.45652 3.09874 1.68774
146 1 4.97443 3.87245 12.9087
147 1 4.49792 3.74146 2.34127
148 1 5.12458 3.15597 0.771495
149 1 5.57899 3.39003 1.62361
150 1 6.15433 3.93841 0.0620213
151 1 5.58273 3.78118 2.52649
152 1 6.15079 3.26584 0.830521
153 1 7.30812 3.61903 0.857856
154 1 7.22748 4.1715 0.0448103
155 1 6.76425 3.5169 1.57871
156 1 7.90873 3.74111 1.66212
157 1 7.76702 4.3697 2.35349
158 1 8.22638 4.22779 0.0374848
159 1 8.31332 4.2502 3.22779
160 1 8.38827 3.70046 0.849427
161 1 5.09135 0.574773 3.37134
162 1 4.96583 13.3647 4.01306
163 1 6.1393 0.493713 3.19338
164 1 6.17927 0.0234596 4.00033
165 1 7.35839 0.54225 3.25951
166 1 7.17331 0.255638 4.08959
167 1 8.39169 0.87061 3.2922
168 1 8.42128 0.434465 4.30298
169 1 5.02451 1.61859 3.32447
170 1 4.92226 1.05795 4.21387
171 1 6.15511 1.63264 3.22686
172 1 6.13201 1.08185 4.0092
173 1 7.14866 1.8814 3.28144
174 1 7.29061 1.27013 3.92222
175 1 8.3495 2.06345 3.20571
176 1 8.43962 1.49879 4.00976
177 1 5.03152 2.6309 3.34366
178 1 5.06336 2.23041 4.1583
179 1 6.24726 2.72664 3.27862
180 1 6.12176 2.19738 4.04716
181 1 7.20241 3.02088 3.18368
182 1 7.28376 2.55937 4.01596
183 1 8.31621 3.18227 3.26599
184 1 8.34035 2.55259 4.02094
185 1 4.96655 3.71687 3.186
186 1 5.05074 3.24983 4.13145
187 1 6.63361 3.96858 2.42411
188 1 6.07094 3.28887 3.95134
189 1 7.13167 4.21882 3.22686
190 1 7.21355 3.55095 4.08664
191 1 8.44766 4.73499 4.15193
192 1 7.77785 3.71036 4.90769
193 1 8.93183 0.384866 1.52146
194 1 9.52787 0.990939 12.9106
195 1 8.8964 0.844595 2.39551
196 1 9.54643 0.404264 0.776145
197 1 10.0106 0.450254 1.5732
198 1 10.63 0.886007 12.918
199 1 10.0518 0.988536 2.30882
200 1 10.6168 0.322147 0.812348
201 1 11.1953 0.292982 1.56976
202 1 11.7383 0.647325 12.8898
203 1 11.1468 0.758478 2.36601
204 1 11.7416 0.196927 0.826813
205 1 12.3026 0.12344 1.71389
206 1 12.8222 0.562945 0.0734981
207 1 12.324 0.720321 2.41959
208 1 12.7727 13.3799 0.813028
209 1 8.9934 1.45457 1.7303
210 1 9.57091 2.11415 12.8868
211 1 8.9062 2.10199 2.37779
212 1 9.47733 1.46692 0.75852
213 1 10.1586 1.5677 1.65049
214 1 10.7325 2.02158 12.8853
215 1 10.0089 2.14386 2.38597
216 1 10.5656 1.4205 0.732832
217 1 11.1381 1.42474 1.64351
218 1 11.8502 1.84493 12.9163
219 1 11.1869 1.96471 2.38407
220 1 11.6908 1.26765 0.711365
221 1 12.2326 1.22681 1.49716
222 1 12.7502 1.62725 12.9253
223 1 12.2952 1.69076 2.46558
224 1 12.8503 1.13039 0.83952
225 1 8.91785 2.62152 1.61724
226 1 9.65194 3.09587 0.00164566
227 1 9.05611 3.17034 2.41429
228 1 9.44867 2.51202 0.873088
229 1 10.1578 2.64089 1.48802
230 1 10.8064 3.29453 12.9372
231 1 10.0302 3.2241 2.47926
232 1 10.6749 2.51328 0.652666
233 1 11.2416 2.58387 1.6054
234 1 11.8615 2.93763 0.110143
235 1 11.0778 2.9433 2.50981
236 1 11.6761 2.45029 0.818978
237 1 12.3435 2.29096 1.592
238 1 12.8917 2.7798 12.8881
239 1 12.3184 2.85062 2.3945
240 1 13.0885 2.21695 0.721732
241 1 8.96572 3.79153 1.63962
242 1 9.43085 4.26974 12.9117
243 1 8.90464 4.25176 2.48671
244 1 9.50463 3.69093 0.708612
245 1 10.0366 3.66032 1.60347
246 1 10.607 4.27884 12.792
247 1 10.0358 4.26256 2.47043
248 1 10.5068 3.75033 0.785892
249 1 11.057 3.61665 1.68357
250 1 11.9019 4.16554 0.0117825
251 1 11.2299 4.24863 2.39239
252 1 11.5909 3.67798 0.76121
253 1 12.1521 3.45313 1.64572
254 1 12.8972 3.84979 0.0199614
255 1 12.3613 3.94592 2.37388
256 1 12.8581 3.28493 0.8623
257 1 9.51401 1.00973 3.23389
258 1 9.61014 0.395584 3.99016
259 1 10.6804 0.892671 3.23367
260 1 10.6137 0.233368 4.06627
261 1 11.68 0.678935 3.23851
262 1 11.7885 0.215146 4.18274
263 1 12.7895 0.539231 3.25203
264 1 12.9645 13.3549 4.10155
265 1 9.56686 2.0231 3.18438
266 1 9.43323 1.56417 4.0655
267 1 10.6927 1.87033 3.21826
268 1 10.6444 1.3723 4.10305
269 1 11.7375 1.7952 3.24297
270 1 11.7731 1.26042 4.14305
271 1 12.8255 1.64413 3.33248
272 1 12.9245 1.00829 4.04461
273 1 9.41087 3.1189 3.26876
274 1 9.4487 2.49335 3.96748
275 1 10.5361 3.05886 3.36037
276 1 10.5548 2.43356 4.06478
277 1 11.756 2.88183 3.1298
278 1 11.6021 2.30497 4.03634
279 1 12.8113 2.7493 3.15051
280 1 12.8338 2.33326 4.02333
281 1 9.4391 4.33728 3.15508
282 1 9.41136 3.72021 3.96149
283 1 10.6821 4.19931 3.28596
284 1 10.5902 3.60259 3.96023
285 1 11.8251 4.02042 3.25916
286 1 11.7098 3.48753 4.03834
287 1 12.9936 3.88884 3.13493
288 1 12.8563 3.44829 3.96158
289 1 13.4212 4.52029 1.53432
290 1 0.478906 4.78306 0.119138
291 1 13.3321 4.96259 2.41393
292 1 0.647311 4.15264 0.809387
293 1 1.16428 4.22345 1.5901
294 1 1.59589 4.79966 0.0329692
295 1 1.12464 4.80596 2.45873
296 1 1.80488 4.15673 0.810012
297 1 2.21145 4.00098 1.55187
298 1 2.75012 4.72813 12.7913
299 1 2.1918 4.69345 2.29867
300 1 2.89129 4.20176 0.704937
301 1 3.33398 3.96339 1.62801
302 1 3.90453 4.73551 12.8275
303 1 3.38695 4.78845 2.42473
304 1 3.97313 4.18026 0.946925
305 1 0.131683 5.52331 1.69026
306 1 0.599454 5.98146 12.9399
307 1 0.197808 5.9838 2.49488
308 1 0.602642 5.46195 0.806591
309 1 1.2366 5.29943 1.54537
310 1 1.70476 5.87751 0.00859137
311 1 1.33879 5.84171 2.39881
312 1 1.76128 5.26828 0.873983
313 1 2.53496 5.17403 1.59431
314 1 2.75013 5.8245 12.913
315 1 2.30777 5.7713 2.34756
316 1 3.00496 5.2525 0.797776
317 1 3.62944 5.23585 1.61953
318 1 3.99698 5.91066 12.9263
319 1 3.32665 5.8745 2.53219
320 1 4.01362 5.24486 0.673053
321 1 13.2931 6.67657 1.76104
322 1 0.567299 7.07333 12.9232
323 1 0.213707 7.08653 2.46873
324 1 0.454579 6.47786 0.922615
325 1 1.06328 6.41282 1.67313
326 1 1.54769 6.90884 0.0742923
327 1 1.20894 7.02272 2.34796
328 1 1.6208 6.4251 0.87147
329 1 2.30241 6.42834 1.55293
330 1 2.64423 6.9001 12.9001
331 1 2.30273 6.88911 2.50481
332 1 2.83019 6.43674 0.770985
333 1 3.34173 6.21036 1.67204
334 1 3.7819 7.12134 12.8538
335 1 3.4808 6.94086 2.45839
336 1 3.90229 6.49068 0.722485
337 1 13.3814 7.7914 1.58788
338 1 0.610992 8.21733 0.0546424
339 1 0.0582146 8.21269 2.35294
340 1 0.498866 7.53121 0.790964
341 1 1.19077 7.58806 1.51038
342 1 1.67618 7.96781 12.9191
343 1 1.14985 8.07654 2.39732
344 1 1.82464 7.54763 0.805813
345 1 2.21473 7.49275 1.73935
346 1 2.80505 7.96215 12.8264
347 1 2.26836 8.10601 2.44584
348 1 2.83623 7.50468 0.863795
349 1 3.32254 7.54383 1.70023
350 1 3.83118 8.28795 0.0711286
351 1 2.92452 9.04364 3.29582
352 1 3.86049 7.49047 0.780476
353 1 0.567826 4.83914 3.0418
354 1 0.692793 4.36482 4.04487
355 1 1.84169 4.62355 3.25221
356 1 1.68694 4.03661 3.93558
357 1 2.84656 4.61633 3.22434
358 1 2.73754 4.09625 4.08738
359 1 3.90762 4.60992 3.41494
360 1 4.01186 4.11569 4.1588
361 1 0.860872 6.01309 3.22269
362 1 0.599552 5.38244 3.98226
363 1 1.85747 5.73163 3.28097
364 1 1.60011 5.13345 4.09106
365 1 2.80472 5.75931 3.31452
366 1 2.78828 5.1765 4.08211
367 1 4.00048 5.71 3.31065
368 1 3.90632 5.37798 4.0969
369 1 0.683 7.10549 3.33837
370 1 0.67164 6.43334 4.1447
371 1 1.70304 6.88499 3.24735
372 1 1.82567 6.39618 4.03159
373 1 2.88977 6.90518 3.15617
374 1 2.85117 6.35728 4.0834
375 1 5.07666 7.2032 3.20899
376 1 3.48448 6.39608 4.89668
377 1 0.685779 8.14228 3.22643
378 1 0.626837 7.6466 4.05803
379 1 1.78512 8.00952 3.24012
380 1 1.81244 7.57722 4.04277
381 1 3.93114 8.0992 3.31965
382 1 2.93302 7.42906 4.06629
383 1 4.03285 6.87973 3.34746
384 1 4.06941 7.59063 4.14917
385 1 4.47633 4.36355 1.61271
386 1 5.00712 4.93542 0.0131565
387 1 4.33929 4.9158 2.48941
388 1 5.0536 4.36024 0.825642
389 1 5.6205 4.99833 2.46189
390 1 6.06837 4.44875 0.907279
391 1 6.07645 5.05062 3.20868
392 1 5.52468 4.44883 1.7217
393 1 6.63114 4.65076 1.57983
394 1 6.73741 5.16957 12.1363
395 1 6.75636 5.15312 2.4084
396 1 7.20141 4.69771 0.825638
397 1 7.79546 4.85447 1.50198
398 1 8.50556 5.49782 0.161947
399 1 7.78309 5.30386 2.48541
400 1 8.50814 4.79596 0.868849
401 1 4.65698 5.48665 1.67285
402 1 5.0994 6.05382 12.9007
403 1 4.58943 6.03665 2.56162
404 1 5.11141 5.50882 0.81612
405 1 5.63475 5.58011 1.56125
406 1 6.16065 6.16198 12.9454
407 1 5.68737 6.15566 2.4886
408 1 6.21765 5.58589 0.705015
409 1 6.66957 5.75836 1.64274
410 1 7.23022 5.72764 0.76942
411 1 6.78484 6.37514 2.36097
412 1 7.43513 5.19729 12.8569
413 1 7.81977 5.90315 1.51024
414 1 8.34164 6.45947 12.8559
415 1 7.98425 6.40664 2.32992
416 1 8.48768 6.08939 0.892704
417 1 4.30777 6.49133 1.64716
418 1 4.96201 7.15931 0.0681647
419 1 4.52439 7.12006 2.47476
420 1 4.95227 6.62154 0.845503
421 1 5.46351 6.65936 1.70737
422 1 6.21286 7.26157 0.121036
423 1 5.77821 7.22724 2.54838
424 1 6.0628 6.70405 0.888744
425 1 6.64437 6.88879 1.61579
426 1 7.25497 7.52242 0.00173066
427 1 6.86221 7.50933 2.42213
428 1 7.36632 6.81719 0.803067
429 1 8.02388 7.1145 1.5161
430 1 8.41326 7.17807 0.626888
431 1 7.9312 7.48654 2.39453
432 1 9.12077 7.22826 1.61255
433 1 4.47314 7.63626 1.61351
434 1 4.95547 8.28716 0.113148
435 1 4.58268 8.1507 2.53897
436 1 5.11777 7.80654 0.918507
437 1 5.64332 7.67289 1.71276
438 1 6.24184 8.43606 12.89
439 1 5.5972 8.42764 2.32227
440 1 6.06324 7.8554 0.885382
441 1 6.79896 8.06697 1.62848
442 1 7.4449 8.62333 0.111012
443 1 6.82587 8.51186 2.48827
444 1 7.27194 7.85399 0.797355
445 1 7.87369 8.15828 1.50735
446 1 8.54765 8.20275 0.774386
447 1 7.89777 9.25427 1.54482
448 1 8.38067 7.70603 12.8195
449 1 4.99767 4.83028 3.20941
450 1 5.1215 4.4186 4.03731
451 1 6.1641 5.57522 4.11277
452 1 6.12397 3.97296 3.26633
453 1 7.17635 5.42882 3.31762
454 1 7.32825 4.56285 3.94432
455 1 8.47925 5.33301 3.26978
456 1 8.32692 3.5776 4.10573
457 1 5.06611 5.49129 4.11981
458 1 4.39846 5.41429 4.88242
459 1 6.2621 6.1984 3.26099
460 1 6.28532 6.68165 4.00668
461 1 7.42765 6.3959 3.10138
462 1 8.08068 5.82893 4.93868
463 1 8.46427 6.50757 3.29016
464 1 7.98557 5.30287 5.65284
465 1 5.26626 7.69005 4.02359
466 1 5.19523 6.02732 3.35919
467 1 6.29375 7.37187 3.29472
468 1 5.10294 6.64983 4.04762
469 1 7.34769 7.9582 4.05162
470 1 7.29519 7.41667 3.3828
471 1 8.42918 7.5223 3.3957
472 1 8.65532 6.91908 4.169
473 1 5.16266 8.26969 3.23404
474 1 4.59631 7.63977 4.83749
475 1 6.28856 8.04519 4.09895
476 1 6.87171 7.79411 4.83984
477 1 7.43841 8.59096 3.20282
478 1 6.77661 9.0701 4.87678
479 1 7.93582 8.53707 2.36229
480 1 8.54919 8.18678 4.09958
481 1 9.03575 4.85643 1.72925
482 1 9.4953 5.45403 12.8368
483 1 8.82966 5.45432 2.32052
484 1 9.56036 4.82095 0.824058
485 1 10.1714 4.70553 1.61329
486 1 10.67 5.27234 12.9012
487 1 10.1133 5.40682 2.34206
488 1 10.6337 4.87675 0.697351
489 1 11.2498 4.79118 1.63282
490 1 11.8097 5.18509 12.7867
491 1 11.2522 5.33017 2.49367
492 1 11.7172 4.70538 0.806096
493 1 12.3534 4.41791 1.48654
494 1 12.8455 5.01913 12.8716
495 1 12.2879 5.01694 2.44975
496 1 12.9562 4.54803 0.793042
497 1 8.98482 6.08774 1.69924
498 1 9.50148 6.46696 12.8204
499 1 9.53917 6.47004 3.25591
500 1 9.59709 5.83952 0.839879
501 1 10.1267 5.89793 1.58202
502 1 10.6383 6.43322 12.8207
503 1 10.1326 6.47687 2.42704
504 1 10.6067 6.00632 0.693993
505 1 11.2099 5.86904 1.60877
506 1 11.8394 6.23051 12.8332
507 1 11.2378 6.37619 2.37787
508 1 11.6881 5.78046 0.822905
509 1 12.3601 5.5681 1.71808
510 1 12.9792 6.1248 0.0433775
511 1 12.3471 6.20274 2.35584
512 1 12.7729 5.62294 0.827024
513 1 9.08199 6.67036 2.44022
514 1 9.5472 7.64617 0.00209127
515 1 8.87097 7.70958 2.5534
516 1 9.43177 7.04344 0.687563
517 1 10.1736 7.07242 1.57477
518 1 10.6359 7.46626 12.8798
519 1 10.1323 7.5622 2.46821
520 1 10.7383 7.11956 0.811755
521 1 11.211 6.93231 1.61247
522 1 11.6375 7.36535 0.0254112
523 1 11.2179 7.58537 2.39532
524 1 11.829 6.73075 0.775273
525 1 12.3009 6.95852 1.69695
526 1 12.8082 7.14347 12.9467
527 1 12.3491 7.38825 2.54127
528 1 12.9342 6.57518 0.905555
529 1 9.01039 8.26907 1.57377
530 1 9.53533 8.90972 12.7285
531 1 8.47758 8.7817 3.26633
532 1 9.58729 8.33305 0.685193
533 1 10.067 8.1207 1.61216
534 1 10.643 8.68677 0.0438338
535 1 10.12 8.71262 2.38955
536 1 10.6397 8.15123 0.785769
537 1 11.2147 8.13892 1.55296
538 1 11.8917 8.56904 0.250813
539 1 11.3889 8.57268 2.442
540 1 11.7568 7.88088 0.784066
541 1 12.362 8.0278 1.57671
542 1 12.9412 8.42404 0.0474699
543 1 12.4922 8.35483 2.42607
544 1 12.9261 7.70662 0.782695
545 1 9.54479 5.39516 3.11095
546 1 9.55253 4.86826 4.02956
547 1 10.6633 5.26788 3.1665
548 1 10.7284 4.82878 4.02793
549 1 11.9002 5.02827 3.39623
550 1 11.8064 4.49806 4.11112
551 1 12.9353 5.00814 3.30447
552 1 13.051 4.3532 4.01515
553 1 9.66562 7.09681 3.95638
554 1 9.74106 5.88288 4.00655
555 1 10.6377 6.55136 3.19605
556 1 10.8288 5.98254 3.97582
557 1 11.7964 6.29392 3.19142
558 1 11.8252 5.7255 3.93931
559 1 12.8699 6.16308 3.1198
560 1 13.0721 5.7177 3.95476
561 1 9.57984 8.8102 3.11316
562 1 9.54679 7.54243 3.17249
563 1 10.7282 7.56433 3.28599
564 1 10.7712 6.97572 4.1399
565 1 11.8352 7.37891 3.26574
566 1 11.9199 6.82088 4.026
567 1 12.9815 7.23276 3.25214
568 1 13.1456 6.68792 3.92561
569 1 8.8965 8.84771 2.38597
570 1 8.91992 8.13928 4.90231
571 1 10.7052 8.67897 3.12384
572 1 10.6499 8.13825 3.9883
573 1 11.7222 8.47483 3.3422
574 1 11.8188 7.96752 4.04075
575 1 13.0763 8.45021 3.25602
576 1 12.9043 7.86762 3.9655
577 1 13.4351 8.97636 1.57864
578 1 0.526059 9.31279 12.9224
579 1 0.0654882 9.43188 2.44548
580 1 0.572372 8.8311 0.871706
581 1 1.14167 8.75291 1.68864
582 1 1.68685 9.07832 0.0845026
583 1 1.11483 9.20623 2.51863
584 1 1.69862 8.57526 0.894986
585 1 2.28205 8.62722 1.61923
586 1 2.7536 9.23833 12.8813
587 1 2.33963 9.21428 2.44227
588 1 2.78958 8.58018 0.715927
589 1 3.34731 8.59368 1.62061
590 1 3.88947 9.39495 12.8919
591 1 3.50231 8.09455 2.48417
592 1 3.98275 8.68646 0.877488
593 1 13.4092 10.0779 1.53236
594 1 0.635256 10.5283 12.9462
595 1 0.103613 10.5478 2.47713
596 1 0.592752 9.92303 0.742655
597 1 1.14314 9.73642 1.58069
598 1 1.77024 10.3227 12.8188
599 1 1.11844 10.3969 2.34659
600 1 1.67281 9.81706 0.807457
601 1 2.24863 9.72481 1.49741
602 1 2.77229 10.3051 0.0413654
603 1 2.22401 10.2186 2.45348
604 1 2.87024 9.58489 0.788273
605 1 3.3365 9.73148 1.66019
606 1 3.98216 10.3826 12.8493
607 1 3.34149 10.3811 2.50001
608 1 3.94979 9.704 0.782761
609 1 13.3389 11.0604 1.59185
610 1 0.574812 11.6214 12.8809
611 1 13.4347 11.5786 2.39432
612 1 0.562764 10.9683 0.893232
613 1 1.11704 10.8714 1.57402
614 1 1.69394 11.3225 12.9453
615 1 1.21535 11.5726 2.32339
616 1 1.66948 10.817 0.821633
617 1 2.3552 10.7789 1.6153
618 1 2.7403 11.4033 12.8166
619 1 2.22563 11.3548 2.47796
620 1 2.84104 10.8453 0.762597
621 1 3.37698 10.7958 1.62449
622 1 3.97604 11.4672 0.0414463
623 1 3.42765 11.465 2.46466
624 1 3.85062 10.7748 0.778418
625 1 0.0431957 12.2106 1.65573
626 1 0.552002 12.6478 0.0729389
627 1 13.2496 12.7658 2.40656
628 1 0.619115 11.9539 0.771275
629 1 1.05021 12.1289 1.63212
630 1 1.63908 12.6199 0.0802749
631 1 1.12869 12.6635 2.60002
632 1 1.72477 11.9392 0.767973
633 1 2.0821 11.7876 1.58643
634 1 2.76624 12.5095 0.00533668
635 1 2.20445 12.5103 2.31452
636 1 2.82134 11.915 0.794328
637 1 3.31147 11.961 1.65107
638 1 3.99521 12.7136 12.8975
639 1 3.38054 12.527 2.29547
640 1 3.89267 11.9974 0.683626
641 1 0.530506 9.32876 3.13098
642 1 0.605496 8.82219 4.04027
643 1 1.75209 9.16843 3.19486
644 1 1.66479 8.71105 4.04969
645 1 2.82753 8.03915 3.18561
646 1 2.81444 8.56943 4.176
647 1 3.34867 9.23644 2.39126
648 1 3.88693 9.35766 3.23044
649 1 0.578605 10.3749 3.33078
650 1 0.646341 9.86947 4.04535
651 1 1.69134 10.4491 3.19379
652 1 1.68285 9.84443 4.00232
653 1 2.80122 10.2817 3.26258
654 1 2.67823 9.7125 3.91169
655 1 3.96182 10.376 3.26458
656 1 3.86273 9.79239 4.2034
657 1 0.589733 11.6414 3.10775
658 1 0.530171 11.0815 3.86196
659 1 1.6937 11.4165 3.22594
660 1 1.62326 10.9068 4.1633
661 1 2.82093 11.4436 3.19576
662 1 2.83959 10.8894 3.95703
663 1 3.93261 11.4424 3.26994
664 1 3.81128 10.8925 4.15248
665 1 0.388596 12.8511 3.18746
666 1 0.548519 12.2255 3.98262
667 1 1.75705 12.4846 3.17055
668 1 1.58994 11.9959 4.01314
669 1 2.85415 12.4905 3.27043
670 1 2.71212 11.9889 4.13152
671 1 3.85844 12.6148 3.27456
672 1 3.82328 12.0962 3.98385
673 1 4.4478 8.68482 1.61058
674 1 5.07907 9.2681 0.0597656
675 1 4.43064 9.29831 2.50009
676 1 5.20144 8.95937 0.876916
677 1 5.56584 8.97496 1.73954
678 1 6.1099 10.6733 0.0783584
679 1 5.54083 9.58212 2.59237
680 1 6.21152 8.92179 0.705062
681 1 6.62724 9.14347 1.61294
682 1 7.26818 9.60573 12.8737
683 1 6.69881 9.69224 2.42578
684 1 7.20589 9.10045 0.800149
685 1 8.42662 9.34241 0.871478
686 1 8.31488 9.87866 0.00517732
687 1 7.78608 10.3607 1.73952
688 1 8.41397 8.84038 0.0159965
689 1 4.47299 9.81941 1.73273
690 1 5.06488 10.3914 0.0330628
691 1 4.52638 10.5176 2.32876
692 1 4.93542 9.99595 0.890848
693 1 5.61624 10.0404 1.66385
694 1 5.44025 10.5372 12.0939
695 1 5.59824 10.7067 2.37046
696 1 6.18331 9.68838 12.8509
697 1 6.10777 9.96843 0.844229
698 1 7.16643 10.8711 12.9369
699 1 6.66104 10.7442 2.51672
700 1 6.72775 10.2094 1.60084
701 1 7.27954 10.1896 0.668819
702 1 8.33207 10.9796 12.8371
703 1 7.79874 10.8865 2.41682
704 1 8.27816 10.4494 0.843512
705 1 4.3507 11.1586 1.51397
706 1 5.12713 11.5331 12.9367
707 1 4.50257 11.6156 2.41833
708 1 4.98629 11.0568 0.856702
709 1 5.55083 11.1883 1.5366
710 1 6.1447 11.7113 12.893
711 1 5.68441 11.7456 2.39532
712 1 6.22858 11.1514 0.866309
713 1 6.74384 11.2504 1.70398
714 1 7.30448 12.019 0.0910926
715 1 6.81848 11.8024 2.4561
716 1 7.29648 11.3646 0.808562
717 1 7.85245 11.4442 1.58115
718 1 8.37938 12.246 0.0696965
719 1 7.91977 11.985 2.39282
720 1 8.42838 11.3889 0.739669
721 1 4.53689 12.1464 1.54244
722 1 5.08127 12.8121 0.10644
723 1 4.54639 12.6409 2.42711
724 1 5.03945 12.1587 0.737179
725 1 5.59368 12.4045 1.65169
726 1 6.17547 12.8737 0.0120688
727 1 5.5857 12.8032 2.53771
728 1 6.09549 12.1669 0.840376
729 1 6.67746 12.3459 1.64345
730 1 7.12405 13.1221 0.00776968
731 1 6.6978 12.9601 2.34768
732 1 7.19068 12.4327 0.807763
733 1 7.84926 12.546 1.54502
734 1 8.35411 13.2966 0.0229919
735 1 7.94004 12.9863 2.37752
736 1 8.45454 12.5561 0.881859
737 1 4.92983 9.2585 3.29096
738 1 5.10422 8.74968 4.17953
739 1 6.09598 9.49191 3.30253
740 1 6.1974 8.99477 4.14327
741 1 7.7903 9.6515 2.42022
742 1 7.3189 9.15615 3.94761
743 1 8.28251 9.88088 3.20966
744 1 8.9261 9.27607 4.88338
745 1 4.96079 10.4312 3.2519
746 1 4.90778 9.88144 4.06364
747 1 6.09283 10.7117 3.32853
748 1 6.0893 10.1436 4.00324
749 1 7.26614 10.7906 3.28755
750 1 7.17478 10.2868 4.06491
751 1 8.40444 10.9348 3.18955
752 1 8.37547 10.4954 4.02503
753 1 4.97924 11.5944 3.23246
754 1 4.95861 11.07 4.01881
755 1 6.13406 11.8076 3.27715
756 1 6.18727 11.3182 4.07483
757 1 7.25687 12.0601 3.33589
758 1 7.2778 11.4028 4.02596
759 1 8.42882 12.024 3.19521
760 1 8.43823 11.5814 4.04064
761 1 4.92127 12.7541 3.36089
762 1 4.99272 12.1236 4.00061
763 1 6.08105 12.8078 3.30343
764 1 5.97517 12.3477 4.17868
765 1 7.27274 13.0046 3.12748
766 1 7.14253 12.5145 4.05835
767 1 8.45449 13.3893 3.2516
768 1 8.37557 12.7407 3.88232
769 1 9.09911 9.48995 1.61872
770 1 9.49548 10.0504 0.0429245
771 1 8.8918 9.8792 2.52634
772 1 9.50938 9.32189 0.839849
773 1 10.1134 9.41165 1.62706
774 1 10.6349 9.81018 0.0205248
775 1 10.1444 9.98885 2.5725
776 1 10.6177 9.27888 0.731156
777 1 11.1324 9.1724 1.64388
778 1 11.7962 9.67629 12.8132
779 1 11.3283 9.62865 2.47239
780 1 11.7819 9.29077 0.822504
781 1 12.2285 9.00272 1.66679
782 1 12.9307 9.54245 0.0431738
783 1 12.4053 9.54315 2.40225
784 1 12.7717 8.91536 0.951723
785 1 8.9383 10.4641 1.61308
786 1 9.4183 11.0163 0.0372813
787 1 9.02125 11.0091 2.37011
788 1 9.52301 10.4232 0.805199
789 1 10.1766 10.5422 1.6186
790 1 10.6031 10.8915 0.0149245
791 1 10.1552 11.0242 2.50032
792 1 10.6678 10.4515 0.766296
793 1 11.2061 10.2119 1.72238
794 1 11.7556 10.781 12.802
795 1 11.2411 10.8045 2.40138
796 1 11.7192 10.3571 0.77633
797 1 12.2957 10.1306 1.68099
798 1 12.9703 10.7292 0.0815034
799 1 12.3803 10.5824 2.43921
800 1 12.7867 10.0242 0.761017
801 1 8.94017 11.683 1.51305
802 1 9.5334 12.1033 12.8134
803 1 8.9305 12.2296 2.24757
804 1 9.56027 11.5757 0.808022
805 1 10.0789 11.5369 1.60307
806 1 10.8526 11.9838 12.892
807 1 10.0478 12.1608 2.15179
808 1 10.6535 11.552 0.696375
809 1 11.2738 11.3558 1.5809
810 1 11.8708 12.0034 0.0173846
811 1 11.154 12.056 2.36659
812 1 11.8031 11.3356 0.737365
813 1 12.2507 11.3324 1.65619
814 1 12.8859 11.757 12.8758
815 1 12.3306 11.7416 2.52734
816 1 12.8538 11.2799 0.740101
817 1 9.2024 12.8025 1.46891
818 1 9.48467 13.3258 12.9488
819 1 8.96449 13.2779 2.4082
820 1 9.59225 12.6339 0.627429
821 1 10.1849 12.9497 1.61046
822 1 10.6216 13.2125 12.9484
823 1 10.1608 13.3781 2.47837
824 1 10.562 12.5089 0.812833
825 1 11.1808 12.556 1.61379
826 1 11.56 13.0045 0.120138
827 1 11.2629 13.0563 2.54373
828 1 11.7227 12.5495 0.910997
829 1 12.405 12.3421 1.48343
830 1 12.8325 12.8037 12.8882
831 1 12.2062 12.8908 2.32569
832 1 13.0468 12.3684 0.78517
833 1 9.49279 9.90117 3.25191
834 1 10.0366 9.33011 4.75424
835 1 10.6942 9.8991 3.28517
836 1 10.6757 9.32041 3.9923
837 1 11.8138 9.55635 3.24084
838 1 11.7483 9.08044 4.13156
839 1 12.8178 9.50459 3.28552
840 1 12.8671 9.01478 4.08554
841 1 9.46834 11.0523 3.07162
842 1 9.51771 10.5505 3.89557
843 1 10.6981 11.0888 3.21478
844 1 10.5845 10.3984 4.03391
845 1 11.7336 10.6935 3.27114
846 1 11.788 10.219 4.13971
847 1 12.9317 10.6295 3.24279
848 1 13.0293 10.07 4.13678
849 1 9.47692 12.1566 3.13796
850 1 9.43538 11.6265 4.00149
851 1 10.4305 12.194 3.15683
852 1 10.5533 11.4428 4.0723
853 1 11.6216 11.814 3.16253
854 1 11.7311 11.3034 3.99813
855 1 12.8906 11.7319 3.29271
856 1 12.8805 11.1043 3.9951
857 1 9.5714 13.2839 3.18601
858 1 9.4199 12.732 4.05154
859 1 10.5968 13.2241 3.27201
860 1 10.5731 12.4598 4.01828
861 1 11.7201 13.2081 3.37152
862 1 11.7035 12.4377 3.90318
863 1 12.7599 12.9311 3.21712
864 1 12.8502 12.3304 4.0948
865 1 0.00877416 13.36 4.96328
866 1 13.387 0.465358 5.76522
867 1 1.03248 13.1715 4.88714
868 1 1.14595 0.137056 5.79076
869 1 2.0758 13.14 4.9289
870 1 2.31813 0.188413 5.66752
871 1 3.17539 13.0969 4.84264
872 1 3.32284 0.186103 5.69123
873 1 13.2581 0.966839 4.9921
874 1 13.4041 1.6062 5.72012
875 1 1.07681 0.734201 4.87643
876 1 1.08862 1.42859 5.5841
877 1 2.09767 0.786143 4.83252
878 1 2.14598 1.28718 5.72052
879 1 3.34492 0.83529 4.84924
880 1 3.21569 1.35019 5.74964
881 1 13.3518 2.04621 4.87776
882 1 0.0291693 2.72775 5.64948
883 1 1.12718 2.05669 4.98819
884 1 1.08862 2.56797 5.73218
885 1 2.19774 1.85046 4.81866
886 1 2.24893 2.32707 5.68334
887 1 3.41936 1.9105 4.93866
888 1 3.33259 2.42988 5.71059
889 1 0.124024 3.27328 4.89023
890 1 0.00131991 3.80878 5.73099
891 1 1.25466 3.09127 4.80335
892 1 1.19975 3.52656 5.72072
893 1 2.44908 2.92721 4.85994
894 1 2.34775 3.43452 5.63938
895 1 3.44847 3.10359 4.90246
896 1 3.54023 3.59765 5.67873
897 1 0.056637 13.291 8.13027
898 1 0.574643 0.316997 6.50187
899 1 0.58563 13.1827 7.25817
900 1 1.07091 13.25 8.18044
901 1 1.76499 0.190568 6.52618
902 1 1.63263 13.1365 7.33638
903 1 2.29103 13.1967 8.15935
904 1 2.81279 0.0976539 6.47886
905 1 2.74875 13.1024 7.31723
906 1 3.36067 12.9707 8.11246
907 1 3.85201 0.226047 6.58287
908 1 3.94938 13.1759 7.40265
909 1 13.3948 0.866203 8.14703
910 1 0.559642 1.44833 6.47728
911 1 0.453362 0.858468 7.28791
912 1 1.09314 0.890672 8.10828
913 1 1.59214 1.26598 6.48009
914 1 1.52791 0.820756 7.28499
915 1 2.11638 0.804396 8.17099
916 1 2.75905 1.25301 6.57187
917 1 2.65322 0.69692 7.34807
918 1 3.31213 0.784669 8.06698
919 1 3.87505 1.35201 6.39989
920 1 3.75022 0.776575 7.34841
921 1 13.3088 2.05349 8.03306
922 1 0.47135 2.43426 6.50272
923 1 0.448237 2.01743 7.45613
924 1 1.10321 1.99998 8.10368
925 1 1.64261 2.43191 6.4677
926 1 1.58853 1.94474 7.19855
927 1 2.14094 1.93356 8.22562
928 1 2.84331 2.3648 6.58712
929 1 2.68956 1.8262 7.38789
930 1 3.28918 1.8978 8.148
931 1 4.43936 2.67311 5.71525
932 1 3.86258 1.8468 7.23407
933 1 0.0204568 3.19524 8.05972
934 1 0.530985 3.70094 6.44254
935 1 0.412846 3.14378 7.19947
936 1 1.11146 3.05922 8.01373
937 1 1.72289 3.69058 6.51732
938 1 1.41114 3.07428 7.21034
939 1 2.16513 3.01667 8.07262
940 1 2.80404 3.43331 6.49619
941 1 2.58681 2.99162 7.25285
942 1 3.289 2.86915 8.02695
943 1 3.72044 3.13041 7.30648
944 1 3.8825 2.45295 6.61402
945 1 4.37846 13.1919 4.97937
946 1 4.38994 0.311601 5.67373
947 1 5.53828 13.3524 4.73871
948 1 5.35522 0.45199 5.69029
949 1 6.72046 0.186933 4.95046
950 1 6.71797 0.783065 5.7194
951 1 7.74575 0.312481 4.84704
952 1 7.89062 0.63851 5.77847
953 1 4.38701 0.99498 4.94804
954 1 4.46759 1.50378 5.78554
955 1 5.65304 0.91794 4.83068
956 1 5.57936 1.44647 5.66237
957 1 6.63983 1.28496 4.7715
958 1 6.65795 1.82386 5.58484
959 1 7.79446 1.47417 4.73064
960 1 7.72479 1.66535 5.61191
961 1 4.41861 2.13733 5.00803
962 1 4.67413 3.36441 4.99915
963 1 5.57062 2.11864 4.96279
964 1 5.67729 2.70225 5.7471
965 1 6.68299 2.44896 4.77191
966 1 6.82583 2.85736 5.66214
967 1 7.822 2.49231 4.92795
968 1 7.80416 2.99588 5.59254
969 1 5.64415 3.23062 4.9497
970 1 4.02696 3.59078 6.33783
971 1 5.60928 4.45817 4.81807
972 1 5.30831 3.91172 5.66391
973 1 6.58368 3.58342 4.86218
974 1 6.67631 3.9944 5.67772
975 1 7.93925 4.14164 5.70164
976 1 8.50914 4.18073 6.46487
977 1 4.50792 13.2198 8.13422
978 1 4.86065 0.428597 6.63201
979 1 5.06618 13.2371 7.1834
980 1 5.55109 13.3082 8.12377
981 1 6.03083 0.624537 6.32006
982 1 6.13216 0.0370527 7.1454
983 1 6.66552 12.9067 8.97805
984 1 7.19206 0.709085 6.45261
985 1 6.65965 13.3466 8.07242
986 1 7.70184 0.304097 8.11498
987 1 8.31261 0.869128 6.58443
988 1 8.41139 0.379026 7.3411
989 1 4.53575 0.860751 8.04894
990 1 5.03379 1.59713 6.54664
991 1 4.93305 1.10409 7.27939
992 1 5.63366 0.953561 7.98452