data.lammps (converted from cfg to data.lammps)
    
2298  atoms
1  atom types
0.0   13.4375  xlo xhi
0.0   13.4375  ylo yhi
0.0   12.952  zlo zhi
0.0  0.0 0.0 xy xz yz
    
    
    
Atoms
  
1 1 13.39 13.1622 1.55604
2 1 0.568082 0.360098 0.00673618
3 1 0.0390847 0.811393 1.57057
4 1 1.12899 13.1611 1.5132
5 1 1.74081 13.2853 0.844763
6 1 2.2 13.2687 11.2723
7 1 1.05424 0.172056 2.31523
8 1 2.26239 1.07604 1.66315
9 1 2.25862 13.3908 1.71272
10 1 2.76768 0.0141134 0.801079
11 1 2.16579 0.421853 2.47454
12 1 2.85228 0.521437 12.8802
13 1 3.23201 12.8991 2.44631
14 1 3.89298 0.665866 0.0549413
15 1 3.41775 0.519866 2.38758
16 1 3.31205 13.3862 1.55986
17 1 12.8039 0.755491 0.788772
18 1 1.10648 1.81957 11.1713
19 1 13.3764 1.24066 2.44662
20 1 0.482717 0.886988 0.817522
21 1 1.12415 0.881211 1.71224
22 1 0.563813 1.38815 0.0513632
23 1 1.02397 1.93129 1.55222
24 1 1.77485 1.41014 0.140054
25 1 1.58278 0.941007 0.845823
26 1 2.20087 1.43131 12.1192
27 1 2.14598 1.59854 2.39444
28 1 2.66202 1.58103 3.34804
29 1 3.48287 0.967583 1.61684
30 1 3.86403 1.29061 0.791555
31 1 5.04635 1.89075 3.2841
32 1 6.1243 0.55518 0.831622
33 1 12.8816 1.98145 0.782195
34 1 0.669939 2.52282 12.9307
35 1 0.155402 2.3913 2.40533
36 1 13.4327 1.86084 1.72816
37 1 2.33571 2.23382 1.57106
38 1 1.73084 2.57117 0.121132
39 1 1.14081 2.55652 2.45321
40 1 2.85457 2.19964 0.810504
41 1 2.74437 0.999656 0.81878
42 1 2.74532 2.77195 12.9195
43 1 2.25911 2.62999 2.58286
44 1 3.44028 1.99188 1.65168
45 1 3.28908 1.68106 2.43832
46 1 3.87034 2.38678 0.754488
47 1 2.74544 2.71506 3.34809
48 1 3.93109 1.83039 12.82
49 1 13.3544 2.95371 1.66512
50 1 0.527117 3.14506 1.04071
51 1 0.079908 3.56311 2.4155
52 1 1.28544 3.04285 1.56174
53 1 0.525323 2.04513 0.78543
54 1 1.68243 3.81934 12.9416
55 1 1.24887 3.61044 2.44994
56 1 1.75479 3.27542 0.694467
57 1 2.41905 3.15346 1.56824
58 1 2.85208 3.8755 12.9078
59 1 2.34409 3.52628 2.5174
60 1 2.86131 3.36264 0.756666
61 1 3.47697 3.20906 1.61938
62 1 3.86297 3.97473 0.0355378
63 1 3.4385 3.9674 2.44545
64 1 3.98607 3.35349 0.838468
65 1 13.413 0.164721 2.47673
66 1 0.684934 0.312731 3.34336
67 1 1.70799 0.268035 3.241
68 1 1.75468 13.266 4.22782
69 1 2.95532 0.64995 3.12082
70 1 2.80794 13.4372 3.96366
71 1 3.87426 1.62411 3.10878
72 1 4.0165 0.563008 3.28875
73 1 0.515053 1.3622 3.09096
74 1 0.505063 0.967071 4.11447
75 1 1.17715 1.42859 2.41285
76 1 1.50538 0.78041 4.21076
77 1 1.63487 1.23326 3.30772
78 1 2.1491 1.03567 4.93959
79 1 4.08319 2.23573 3.92867
80 1 4.525 1.81086 2.38354
81 1 0.562289 2.46078 3.2662
82 1 0.463775 1.9157 4.14661
83 1 1.65752 2.56576 3.34169
84 1 1.57518 1.87579 3.94689
85 1 2.81662 2.05762 4.12206
86 1 3.44196 2.2493 4.81551
87 1 3.44638 2.89096 2.37801
88 1 4.44311 2.45058 4.77683
89 1 0.598532 3.66254 3.2358
90 1 0.518004 3.13306 4.04788
91 1 1.67915 3.82857 3.27789
92 1 1.64097 3.20349 3.97838
93 1 2.75944 3.92679 3.27397
94 1 2.67844 3.25097 4.12199
95 1 3.92312 3.89618 3.30214
96 1 3.71712 2.74679 3.19008
97 1 4.64612 0.0160626 1.58697
98 1 5.19358 0.22095 0.897796
99 1 4.54933 1.12025 1.47161
100 1 5.55853 1.38472 1.6198
101 1 5.55877 0.648048 2.10545
102 1 6.15298 0.850043 12.7842
103 1 4.97639 13.0035 3.26311
104 1 6.47463 0.293566 1.69967
105 1 6.83695 1.42452 1.52102
106 1 7.24834 0.897617 12.9315
107 1 6.64879 0.995566 2.32345
108 1 7.85043 0.420007 1.59622
109 1 7.12976 0.363896 0.999054
110 1 7.77522 1.47189 11.26
111 1 7.79392 0.951894 2.49955
112 1 8.32042 0.39517 0.714326
113 1 4.79254 0.801718 12.9244
114 1 4.52384 1.81285 12.1019
115 1 3.88736 1.18189 4.0216
116 1 4.99493 1.37322 0.659675
117 1 6.24547 2.01908 12.8324
118 1 6.17066 2.55867 0.690366
119 1 5.67388 1.89606 2.49759
120 1 5.10406 1.94806 12.944
121 1 6.12288 1.53862 0.817981
122 1 6.7155 2.08077 11.9983
123 1 6.73603 2.01571 2.34189
124 1 7.33292 1.51156 0.697948
125 1 7.86592 1.46325 1.66546
126 1 8.4717 2.1018 12.7273
127 1 7.86363 1.98681 2.4303
128 1 7.75662 1.94082 12.0961
129 1 4.43472 2.25727 1.5483
130 1 5.04175 2.97948 12.7317
131 1 4.45792 2.81377 2.47996
132 1 5.07729 2.5055 0.826976
133 1 5.55436 2.49459 1.52874
134 1 6.19316 3.13095 12.9474
135 1 5.71357 2.86786 2.46776
136 1 6.69759 2.57094 1.54279
137 1 7.87022 3.25366 2.42768
138 1 7.88281 3.16741 12.0491
139 1 6.7831 3.20228 2.37134
140 1 7.24385 2.04615 0.0282475
141 1 7.42386 2.64711 0.748908
142 1 8.47269 3.04084 12.8458
143 1 7.95259 3.75371 1.60003
144 1 7.8038 2.55562 1.71848
145 1 4.63779 3.37627 1.6799
146 1 4.9877 4.10822 0.012565
147 1 4.52816 3.95015 2.25398
148 1 5.1084 3.52226 0.701492
149 1 5.67447 3.62908 1.68381
150 1 6.20489 4.21736 12.907
151 1 5.67226 4.13831 2.56894
152 1 6.07642 3.7509 0.765058
153 1 7.4869 4.22182 12.8731
154 1 6.75026 4.25904 12.163
155 1 6.76045 3.72395 1.51656
156 1 7.24413 3.69499 0.762013
157 1 7.76612 4.26023 2.54985
158 1 8.4326 4.05306 0.0624425
159 1 8.46618 4.30863 3.07245
160 1 8.45715 3.54974 0.884877
161 1 5.05288 0.89112 3.18345
162 1 4.35624 13.1466 2.46957
163 1 6.01578 0.763435 3.19133
164 1 6.21738 0.346076 3.97567
165 1 7.12924 0.93183 3.13438
166 1 7.21943 0.482133 3.92944
167 1 8.38125 0.813685 3.13907
168 1 8.26639 0.214936 4.02713
169 1 5.02572 1.35488 4.05785
170 1 4.47482 1.2258 4.71142
171 1 6.26188 1.99896 3.30088
172 1 6.3604 1.42685 4.0854
173 1 7.27612 2.11669 3.16622
174 1 7.3241 1.56697 4.03588
175 1 8.45039 1.91877 3.24503
176 1 8.34646 1.30232 3.96601
177 1 5.06838 3.05342 3.13994
178 1 5.08502 2.5296 3.96304
179 1 6.22408 3.08974 3.20167
180 1 6.16459 2.46055 4.08099
181 1 7.27935 3.13056 3.26225
182 1 7.31615 2.57157 4.11797
183 1 8.42633 3.13657 3.34748
184 1 8.39703 2.50249 3.95969
185 1 5.20131 3.63243 4.14416
186 1 4.4555 3.54872 4.79934
187 1 6.78596 4.32874 2.42393
188 1 6.19574 3.50747 3.98204
189 1 7.23393 4.38943 3.41478
190 1 7.26258 3.74208 3.99973
191 1 8.45764 5.31749 3.28771
192 1 7.76963 3.58584 4.86815
193 1 8.83446 0.154886 1.65292
194 1 8.90878 0.737672 12.255
195 1 9.01951 0.707427 2.34794
196 1 9.41261 0.400155 0.804331
197 1 9.92796 0.0323791 1.55279
198 1 10.6277 0.480094 0.0511455
199 1 10.1677 0.504402 2.3858
200 1 10.6421 13.411 0.911598
201 1 11.3328 13.2927 1.53266
202 1 11.0703 0.4606 12.1032
203 1 11.1336 0.430746 2.37142
204 1 11.8316 13.2507 0.611296
205 1 12.3436 13.2131 1.65261
206 1 11.71 0.403984 12.8376
207 1 12.3052 0.402968 2.36353
208 1 12.843 13.1267 0.793626
209 1 8.44871 1.52018 0.699133
210 1 9.95492 2.39983 1.60092
211 1 8.87082 1.31407 1.54302
212 1 9.64843 0.716367 12.9364
213 1 9.54777 1.47517 0.943512
214 1 10.0177 2.84227 12.221
215 1 10.1231 1.70784 2.46119
216 1 10.5631 1.05954 0.856302
217 1 11.0781 1.039 1.63084
218 1 11.7963 2.09003 0.779931
219 1 11.2259 1.59193 2.40209
220 1 11.6772 0.929233 0.857232
221 1 12.2833 0.993847 1.52972
222 1 12.2574 0.303963 12.1493
223 1 12.3907 1.38498 2.53802
224 1 0.51468 13.2082 0.828628
225 1 8.98817 2.45081 1.57021
226 1 9.00706 3.16088 12.1692
227 1 9.59652 2.87851 3.14888
228 1 10.2081 2.81256 2.48156
229 1 9.94617 1.16265 1.68696
230 1 10.1285 2.33846 11.22
231 1 10.0098 3.41405 1.66778
232 1 10.5747 2.14571 0.9043
233 1 11.2197 2.11177 1.54978
234 1 12.2712 2.44056 12.3316
235 1 11.2113 2.64248 2.43332
236 1 11.672 2.6921 0.10351
237 1 12.3709 2.0083 1.54406
238 1 11.8242 3.85609 12.9358
239 1 12.2776 2.46922 2.52428
240 1 12.9366 1.35137 12.9391
241 1 8.89419 2.86982 2.50637
242 1 9.61362 4.49212 0.796416
243 1 9.00494 3.54178 1.72649
244 1 9.54005 3.32497 0.762484
245 1 10.6897 3.2271 0.92302
246 1 10.667 3.79019 0.135907
247 1 10.0822 4.40759 1.54718
248 1 10.2791 3.35435 11.3614
249 1 11.1222 3.68587 2.52471
250 1 12.3438 3.54726 12.2586
251 1 11.2792 4.39273 1.7511
252 1 11.804 4.35531 0.838813
253 1 12.22 3.02873 1.71882
254 1 12.8599 3.06515 0.836242
255 1 12.3293 3.58156 2.47826
256 1 13.0335 2.62211 12.9454
257 1 9.55457 0.588331 3.16899
258 1 9.34856 0.155202 4.13573
259 1 10.6383 0.468937 3.3228
260 1 10.6251 13.4284 3.97891
261 1 11.7313 0.228362 3.14361
262 1 11.5942 13.3506 4.12149
263 1 12.8124 0.232224 3.16678
264 1 12.8002 12.9467 3.90853
265 1 8.96868 1.90071 2.42301
266 1 9.39766 1.15259 3.92153
267 1 10.7367 1.42538 3.23751
268 1 10.4675 1.07705 4.10848
269 1 11.7873 1.40527 3.26102
270 1 11.8561 0.968891 4.15336
271 1 12.9182 1.46522 3.37073
272 1 12.8571 0.628839 3.92725
273 1 9.56566 2.26167 3.88989
274 1 9.54936 1.68205 3.12584
275 1 10.7551 2.65336 3.28604
276 1 10.6149 2.14773 4.06605
277 1 11.7581 2.48751 3.31543
278 1 11.7371 1.98754 4.13131
279 1 12.9929 2.50921 3.23692
280 1 12.8944 2.03335 4.08164
281 1 10.1432 4.10942 2.45899
282 1 9.51804 3.99497 3.37489
283 1 12.8906 3.55942 3.21348
284 1 10.5926 3.23336 4.18509
285 1 10.637 3.76808 3.37058
286 1 11.8079 3.02829 3.96646
287 1 11.8185 3.76187 3.2445
288 1 12.8035 3.12841 4.12937
289 1 0.0480892 4.13575 1.63943
290 1 0.700733 4.74946 0.0194079
291 1 13.3989 4.62597 2.59019
292 1 0.559957 4.24092 0.812168
293 1 1.09784 4.14317 1.67854
294 1 1.78004 4.84365 12.8785
295 1 1.10553 4.81873 2.36685
296 1 1.67051 4.25665 0.991077
297 1 2.27801 4.23436 1.82992
298 1 2.92721 5.00793 0.107952
299 1 2.36958 4.85184 2.49875
300 1 2.7646 4.36041 0.843625
301 1 3.33345 4.3357 1.56805
302 1 3.91418 4.95795 0.0289446
303 1 3.55605 5.02795 2.4705
304 1 4.03751 4.44465 0.911588
305 1 0.0271128 5.14709 1.61294
306 1 0.698419 5.8553 12.9221
307 1 13.3879 5.69919 2.43691
308 1 0.681778 5.36397 0.855684
309 1 1.03362 5.39192 1.75488
310 1 1.70496 5.76426 0.0571902
311 1 1.13906 5.95596 2.45896
312 1 1.70322 5.2352 0.898107
313 1 2.26892 5.47702 1.6701
314 1 2.87401 6.06472 0.0247163
315 1 2.23103 5.97576 2.42739
316 1 2.86369 5.56815 0.802419
317 1 3.40199 5.45552 1.63786
318 1 3.94059 6.08176 0.070798
319 1 3.24361 6.12315 2.35378
320 1 4.05133 5.59254 0.940035
321 1 13.3505 6.25645 1.66666
322 1 0.717205 6.80408 12.7461
323 1 0.0625504 6.91142 2.29749
324 1 0.41 6.35127 0.877321
325 1 1.11397 6.49301 1.5015
326 1 1.78602 6.95572 0.0811817
327 1 1.06727 6.97428 2.33834
328 1 1.73875 6.34341 0.837349
329 1 2.21084 6.63278 1.67069
330 1 2.83969 7.17505 0.0723307
331 1 2.12718 7.16973 2.43919
332 1 2.85085 6.61474 0.866534
333 1 3.43729 6.65037 1.53765
334 1 3.99242 7.26072 12.9291
335 1 3.33765 7.17256 2.37826
336 1 3.98207 6.82633 0.77788
337 1 0.0634861 7.57866 1.65937
338 1 0.619931 7.95817 0.00855825
339 1 0.110662 8.05703 2.53574
340 1 0.564208 7.31805 0.656775
341 1 1.12502 7.5245 1.55428
342 1 1.72622 8.20585 0.038258
343 1 1.22196 8.08319 2.44845
344 1 1.72194 7.6354 0.828911
345 1 2.29941 7.73118 1.6071
346 1 2.82209 8.33317 12.7977
347 1 2.29996 8.2743 2.47708
348 1 2.90788 7.82138 0.719736
349 1 3.35752 7.85855 1.48166
350 1 3.92343 8.43737 12.8774
351 1 2.90551 9.36423 3.23953
352 1 3.95402 7.91528 0.737166
353 1 0.678826 4.77827 3.15026
354 1 0.573656 4.21391 4.02391
355 1 1.82143 4.93799 3.14256
356 1 1.74858 4.33902 4.06645
357 1 3.02505 4.96259 3.23715
358 1 2.82208 4.35247 4.05228
359 1 4.01682 5.01725 3.26516
360 1 3.94622 4.62727 4.09703
361 1 0.618171 5.85116 3.29952
362 1 0.651021 5.27187 4.02616
363 1 1.77629 6.0703 3.272
364 1 1.72825 5.3872 4.02592
365 1 2.88097 6.0927 3.24739
366 1 2.75265 5.51769 4.09623
367 1 3.89212 6.18035 3.28805
368 1 3.92667 5.68193 4.14903
369 1 0.503398 6.93272 3.36724
370 1 0.637611 6.49209 4.10143
371 1 1.60808 7.07073 3.28933
372 1 1.72564 6.42771 4.1898
373 1 2.86909 7.10293 3.13168
374 1 2.76048 6.69322 4.08108
375 1 5.04506 7.31384 3.02449
376 1 3.45985 6.67222 4.69333
377 1 0.586271 8.00995 3.27146
378 1 0.538826 7.68941 4.22457
379 1 1.65015 8.08224 3.30997
380 1 1.7965 7.61736 4.12173
381 1 3.9603 8.49423 3.14973
382 1 2.92118 7.68978 3.994
383 1 3.91984 7.24507 3.19039
384 1 3.88952 7.92323 3.89382
385 1 4.51421 4.61288 1.56281
386 1 5.04301 5.1673 0.0250665
387 1 4.55881 5.05673 2.3634
388 1 5.12618 4.67918 0.76716
389 1 5.66888 5.29517 2.44132
390 1 6.28464 4.84837 0.713756
391 1 6.20468 5.31563 3.28158
392 1 5.71076 4.74482 1.59109
393 1 6.70873 4.87152 1.66499
394 1 6.80822 5.47444 12.2216
395 1 6.6921 5.40233 2.49492
396 1 7.28442 4.86549 0.830455
397 1 7.85484 4.69677 1.59381
398 1 8.35376 5.23078 0.0286682
399 1 7.93315 5.37659 2.42214
400 1 8.54641 4.80618 0.749579
401 1 4.642 5.85774 1.69623
402 1 5.06281 6.33707 0.00103909
403 1 4.37383 6.14019 2.57819
404 1 5.09926 5.75843 0.878267
405 1 5.66314 5.81853 1.55173
406 1 6.26049 6.64238 12.9173
407 1 6.24513 6.62927 3.24586
408 1 6.24453 6.05057 0.640669
409 1 6.64611 5.98255 1.39974
410 1 7.39939 5.95907 0.769837
411 1 6.73719 6.4364 2.28127
412 1 7.27418 5.23768 12.9254
413 1 7.72663 5.93637 1.7154
414 1 8.43608 6.18191 0.028865
415 1 7.88621 6.58927 2.39117
416 1 8.41704 5.77774 1.02317
417 1 4.53497 6.84997 1.49461
418 1 5.13698 7.63603 0.00798342
419 1 4.43146 7.28565 2.291
420 1 5.04614 6.85986 0.682455
421 1 5.69965 6.38938 2.36369
422 1 6.29408 7.60724 12.913
423 1 5.52585 6.9823 1.68688
424 1 6.07758 7.0728 0.963681
425 1 6.68134 7.15421 1.63554
426 1 7.41535 7.67915 0.158069
427 1 6.84414 7.62129 2.40898
428 1 7.34158 7.06298 0.91191
429 1 8.0308 6.95448 1.45618
430 1 8.59187 6.87458 0.679541
431 1 7.87435 7.65757 2.36454
432 1 9.01789 6.80792 1.61777
433 1 4.50471 8.00457 1.66595
434 1 5.019 8.62463 12.8328
435 1 4.57645 8.47482 2.43425
436 1 4.99837 8.07582 0.884313
437 1 5.68632 7.56938 2.55592
438 1 6.20989 8.72313 12.8555
439 1 5.58893 8.08395 1.72422
440 1 6.10806 8.09161 0.812838
441 1 6.59929 8.20518 1.70746
442 1 7.33714 8.74385 12.9167
443 1 6.73668 8.7847 2.51353
444 1 7.16442 8.20947 0.876632
445 1 7.84891 8.14384 1.50432
446 1 8.48817 8.144 0.857014
447 1 7.7525 9.24407 1.55876
448 1 8.45129 7.53403 0.102599
449 1 5.0537 5.13013 3.21256
450 1 4.99989 3.95972 3.14771
451 1 6.13845 6.04057 3.90215
452 1 6.3077 4.21139 3.23738
453 1 7.37377 5.51815 3.21483
454 1 7.38791 4.91796 4.06619
455 1 8.5014 5.79264 4.09001
456 1 8.38913 3.71136 4.02171
457 1 4.96591 5.77933 3.93354
458 1 4.63075 5.19605 5.60362
459 1 6.1282 7.18255 3.99367
460 1 6.37468 7.64115 3.21182
461 1 7.34624 6.57787 3.20561
462 1 8.28864 6.38452 6.47737
463 1 8.43277 6.48064 3.17189
464 1 7.75603 6.58256 5.72898
465 1 4.97147 7.82725 4.04801
466 1 5.16824 6.26771 3.10049
467 1 6.12448 8.68279 3.16891
468 1 5.14385 6.8662 3.97198
469 1 6.16388 8.24223 4.03697
470 1 7.35563 7.64032 3.30889
471 1 8.34536 7.50177 3.23099
472 1 8.50098 6.91443 4.00901
473 1 5.02467 8.38247 3.38596
474 1 4.4563 7.88842 4.8173
475 1 5.60938 8.17048 4.79561
476 1 6.73669 8.14553 4.83964
477 1 7.46471 8.8218 3.16231
478 1 6.63592 9.3453 4.88297
479 1 7.95149 8.72215 2.30366
480 1 8.37484 8.07875 3.94171
481 1 9.1176 3.96136 2.50191
482 1 9.60647 5.24425 0.0543967
483 1 8.92128 4.59591 1.67126
484 1 10.0381 5.08901 2.50683
485 1 11.2062 3.27214 1.63266
486 1 10.1053 5.05003 12.2051
487 1 10.0412 5.481 1.72231
488 1 10.7024 4.94735 0.120957
489 1 10.7682 4.40157 0.862251
490 1 12.4743 4.83315 12.1453
491 1 11.2131 4.83358 2.49208
492 1 11.8377 4.91537 0.0296743
493 1 12.4522 4.23475 1.79287
494 1 12.9712 4.77975 0.166254
495 1 12.3427 4.81553 2.50962
496 1 12.811 4.17691 0.867177
497 1 8.99688 5.12169 2.31852
498 1 9.4915 6.18939 0.049989
499 1 9.5153 6.18665 3.23808
500 1 9.04979 5.7527 1.58522
501 1 9.70138 5.66839 0.852448
502 1 10.6878 6.20264 12.8533
503 1 10.1162 6.21248 2.45026
504 1 10.7227 5.60631 0.764896
505 1 11.1271 5.45808 1.73704
506 1 11.3917 6.0316 12.1021
507 1 11.1966 6.09008 2.45181
508 1 11.803 5.35888 0.997731
509 1 12.4296 5.291 1.64321
510 1 13.0046 5.92368 12.9383
511 1 12.2897 5.9217 2.42092
512 1 12.9559 5.3763 0.765809
513 1 9.01241 6.275 2.46004
514 1 9.54057 7.46862 12.921
515 1 8.92575 7.40413 2.43727
516 1 9.69455 6.90341 0.708284
517 1 10.0408 6.70338 1.67835
518 1 10.7319 7.24256 12.8638
519 1 10.0585 7.29035 2.43851
520 1 10.6519 6.66657 0.805715
521 1 11.1604 6.55169 1.61912
522 1 11.8939 7.01826 0.0639725
523 1 11.1522 7.11196 2.53113
524 1 12.8197 6.46498 0.875603
525 1 12.2264 6.51196 1.72873
526 1 12.4155 6.96987 12.1791
527 1 12.4313 7.06533 2.55005
528 1 12.9609 7.07847 0.0514192
529 1 9.02936 7.88211 1.58799
530 1 10.1217 8.44054 12.1871
531 1 8.55377 8.68749 3.20341
532 1 9.64894 7.97142 0.890081
533 1 10.1749 7.79891 1.73252
534 1 10.6754 8.41919 0.0591821
535 1 10.1012 8.38732 2.40284
536 1 10.7699 7.75877 0.826364
537 1 11.2639 7.56133 1.7372
538 1 11.7652 7.59419 0.764867
539 1 11.3051 8.19259 2.55649
540 1 11.7687 6.36373 0.814117
541 1 12.3768 7.53353 1.5519
542 1 12.8443 8.15573 12.9467
543 1 12.7761 8.1362 3.12431
544 1 12.9749 7.50578 0.826193
545 1 9.49835 5.09746 3.29632
546 1 9.53329 3.29485 4.01078
547 1 10.6622 5.06266 3.26827
548 1 10.6471 4.3762 4.02713
549 1 11.7701 4.89624 3.29806
550 1 11.7438 4.29604 4.04627
551 1 12.8833 4.69892 3.35024
552 1 12.8989 4.08426 4.03815
553 1 9.67141 6.75729 4.13127
554 1 9.67218 5.72513 4.07418
555 1 10.6933 6.01624 3.20189
556 1 10.6095 5.49301 4.16566
557 1 11.8334 5.87642 3.30127
558 1 11.8136 5.42253 4.11444
559 1 12.9409 5.96469 3.24097
560 1 13.076 5.36339 3.94913
561 1 9.47129 8.30923 3.29735
562 1 9.48124 7.29639 3.18069
563 1 10.5357 7.27971 3.29081
564 1 10.6375 6.67775 3.9641
565 1 11.7593 7.06533 3.20505
566 1 11.6969 6.56062 4.02789
567 1 12.9494 6.99025 3.32151
568 1 12.7086 6.49039 4.17411
569 1 8.99295 8.52964 2.3693
570 1 8.86542 8.03434 4.80075
571 1 10.5977 8.36539 3.22002
572 1 10.7184 7.82087 4.0356
573 1 12.3794 8.15885 2.37349
574 1 11.811 8.75433 4.16258
575 1 12.9105 7.60511 4.02739
576 1 12.3425 7.49683 4.90619
577 1 0.146158 8.60642 1.53796
578 1 0.111406 9.13203 12.1357
579 1 0.510805 9.18747 3.23505
580 1 0.632595 8.64691 0.646791
581 1 1.14139 8.68384 1.67621
582 1 1.77452 9.28135 12.906
583 1 1.02276 9.12209 2.51745
584 1 1.70245 8.72904 0.817315
585 1 2.24248 8.88603 1.64665
586 1 2.9677 9.44667 12.894
587 1 2.33125 9.37174 2.37099
588 1 2.75302 8.87473 0.803809
589 1 3.42461 8.92837 1.60076
590 1 4.05963 9.57152 0.0415174
591 1 3.37601 8.3685 2.35695
592 1 3.8756 9.04918 0.746644
593 1 13.3541 9.16294 2.3326
594 1 0.704787 9.72367 0.795776
595 1 0.0644831 10.2368 2.36014
596 1 0.552162 9.23362 12.8592
597 1 1.1026 9.76674 1.73473
598 1 1.79583 10.3894 0.019497
599 1 1.30905 10.4015 2.38089
600 1 1.68897 9.79654 0.831549
601 1 2.17889 9.94143 1.61971
602 1 2.79304 10.5787 0.0685676
603 1 2.35144 10.5791 2.36739
604 1 2.72425 9.97272 0.798794
605 1 3.25517 10.1031 1.42785
606 1 3.8956 10.6072 0.0419324
607 1 3.39941 10.574 2.30757
608 1 3.93653 10.1861 0.885527
609 1 13.4028 10.843 1.6313
610 1 0.338165 11.9859 0.785583
611 1 0.0852901 11.3715 2.44134
612 1 0.553493 10.3697 0.166633
613 1 0.431954 10.956 0.798126
614 1 2.64684 11.7574 0.0657454
615 1 1.10943 11.485 2.45865
616 1 1.09118 10.8763 1.57049
617 1 2.29359 11.1631 1.52532
618 1 2.76262 12.4091 0.740142
619 1 2.28393 11.6022 2.61285
620 1 1.62532 10.9638 0.844759
621 1 3.46954 11.2714 1.59927
622 1 3.80937 11.8689 12.8947
623 1 3.36953 11.7366 2.40732
624 1 3.9236 11.3138 0.734755
625 1 0.0682723 11.9321 1.75984
626 1 0.0404899 12.5508 12.1789
627 1 0.0240877 12.592 2.43131
628 1 0.621046 12.6105 0.162212
629 1 1.01151 12.0762 1.60072
630 1 1.72633 0.261724 0.11353
631 1 1.09203 12.4837 2.42875
632 1 1.62919 12.1416 0.822253
633 1 2.23554 12.1965 1.5517
634 1 1.631 12.5614 12.8953
635 1 2.11525 12.6058 2.36589
636 1 2.85336 12.8922 12.8683
637 1 3.28347 12.3349 1.624
638 1 3.97827 0.0350232 0.795196
639 1 3.84358 13.053 3.29687
640 1 3.87822 12.3696 0.802338
641 1 0.561655 9.726 4.01762
642 1 0.654348 8.69186 4.09694
643 1 1.69728 9.33944 3.08865
644 1 1.69118 8.79631 3.83668
645 1 2.82263 8.24418 3.24449
646 1 2.80685 8.95701 4.03125
647 1 3.36823 9.52117 2.28691
648 1 3.95724 9.55276 3.17455
649 1 0.631929 10.2837 3.20526
650 1 13.3505 9.72815 4.84302
651 1 1.72951 10.3633 3.24363
652 1 1.62204 9.75519 4.05734
653 1 2.793 10.3861 3.26223
654 1 2.77037 10.0491 4.07646
655 1 3.83861 10.7028 3.1031
656 1 3.96374 10.033 4.02612
657 1 0.54883 11.3735 3.30012
658 1 0.385697 10.7621 4.03329
659 1 1.64822 11.4681 3.28957
660 1 1.60751 10.9418 4.11861
661 1 2.8145 11.544 3.36176
662 1 2.79898 11.0832 4.07549
663 1 3.91276 11.8066 3.16727
664 1 3.87911 11.2997 4.03358
665 1 0.545865 13.1445 3.97354
666 1 0.60238 12.6449 3.25037
667 1 1.73001 12.7587 3.32083
668 1 1.6082 12.1429 4.0053
669 1 2.8211 12.8324 3.18317
670 1 2.62794 12.2987 3.98896
671 1 3.93525 0.0659159 4.13822
672 1 3.8483 12.3378 3.89574
673 1 4.49591 9.14398 1.54041
674 1 5.06373 9.73257 12.9184
675 1 4.41379 9.62289 2.37636
676 1 5.14891 9.12343 0.849083
677 1 5.72353 9.27228 1.54004
678 1 6.12137 10.9724 12.9146
679 1 5.49598 9.94711 2.45535
680 1 6.18222 9.22893 0.643097
681 1 6.74302 9.30152 1.67594
682 1 7.35765 9.88844 0.043685
683 1 6.76496 9.99915 2.40539
684 1 7.20351 9.33846 0.739809
685 1 8.40591 9.27908 0.937436
686 1 8.42586 9.71261 12.9092
687 1 7.96492 10.4148 1.62967
688 1 8.36513 8.7501 0.0480166
689 1 4.5051 10.1594 1.56088
690 1 5.02084 10.9627 12.9246
691 1 4.45617 10.6969 2.3942
692 1 5.12439 10.2419 0.700653
693 1 5.6203 10.3384 1.56889
694 1 5.61064 10.9966 12.0674
695 1 5.64208 10.9469 2.26994
696 1 6.17988 9.90528 0.0629279
697 1 6.20794 10.447 0.856723
698 1 7.18789 10.927 12.929
699 1 6.5975 11.0614 2.34704
700 1 6.87976 10.3783 1.47889
701 1 7.49714 10.5224 0.787735
702 1 8.42676 10.8595 12.9357
703 1 7.7009 11.0398 2.54676
704 1 8.51362 10.288 0.763256
705 1 4.51288 11.3413 1.74013
706 1 4.96188 12.1077 0.00402175
707 1 4.44018 12.0546 2.44595
708 1 5.01696 11.3757 0.847578
709 1 5.66146 11.5297 1.51354
710 1 6.02532 12.0609 12.8846
711 1 5.49481 12.1655 2.29456
712 1 6.14551 11.5771 0.746264
713 1 6.77387 11.5126 1.53485
714 1 7.31392 12.1462 12.8978
715 1 6.70174 12.2086 2.37814
716 1 7.3424 11.6148 0.738873
717 1 7.84466 11.4947 1.59437
718 1 8.45579 12.0621 12.92
719 1 7.85126 12.1124 2.47263
720 1 8.38984 11.5722 0.672375
721 1 4.3702 12.4628 1.60074
722 1 5.07158 13.1147 0.119102
723 1 4.52597 0.778292 2.34208
724 1 5.00175 12.4559 0.840773
725 1 5.65067 12.7526 1.54134
726 1 6.18285 13.3295 0.142007
727 1 5.44752 13.1949 2.47664
728 1 6.19351 12.6055 0.77938
729 1 6.67019 12.6932 1.64248
730 1 7.2378 13.3333 0.0155083
731 1 6.71575 13.2723 2.54434
732 1 7.33507 12.7225 0.8139
733 1 7.79792 12.515 1.64509
734 1 8.24553 13.1883 12.9178
735 1 7.74242 13.265 2.35171
736 1 8.35704 12.7119 0.870883
737 1 5.02091 9.70032 3.21291
738 1 5.08245 9.13094 3.93225
739 1 6.2077 9.69807 3.10921
740 1 6.07143 9.37233 3.90885
741 1 7.88401 9.91831 2.37563
742 1 7.10939 9.34412 4.13673
743 1 8.4857 9.84095 3.17807
744 1 8.94966 9.1128 4.55074
745 1 4.9901 11.0139 3.1245
746 1 4.91576 10.3958 3.96826
747 1 6.07301 10.8373 3.25128
748 1 5.97704 10.4481 4.00384
749 1 7.08679 11.0196 3.19381
750 1 7.20519 10.378 3.9017
751 1 8.40563 10.8824 3.07898
752 1 8.3463 10.3302 4.10823
753 1 5.07962 11.893 3.28882
754 1 4.96602 11.3898 4.09414
755 1 6.15388 11.9408 3.11893
756 1 6.17687 11.6057 4.06963
757 1 7.2571 12.0623 3.25368
758 1 7.23228 11.5324 4.11792
759 1 8.43973 11.9763 3.35436
760 1 8.28379 11.3764 3.90517
761 1 5.01092 0.227342 4.04772
762 1 5.04304 12.5799 4.10348
763 1 6.09569 13.0974 3.20511
764 1 6.18564 12.5241 4.02793
765 1 7.30429 13.1671 3.25036
766 1 7.1805 12.7483 4.08831
767 1 8.31714 13.1212 3.25888
768 1 8.38953 12.4864 4.05373
769 1 9.02438 9.07563 1.65788
770 1 9.61299 9.00261 0.897489
771 1 8.86026 9.73116 2.32553
772 1 9.46755 9.4276 12.8985
773 1 10.1506 9.04407 1.66223
774 1 10.0949 9.536 12.2394
775 1 10.0669 9.59136 2.37009
776 1 10.6319 8.88338 0.838492
777 1 11.2049 8.71142 1.67993
778 1 11.8187 9.2955 12.8033
779 1 11.237 9.31865 2.43504
780 1 11.796 8.59348 0.900053
781 1 12.4384 8.73838 1.56138
782 1 12.853 9.33207 0.0418699
783 1 12.3341 9.3081 2.38389
784 1 13.0125 8.59037 0.787795
785 1 9.03513 10.2925 1.60834
786 1 9.61325 10.8041 0.0248782
787 1 9.13121 10.8674 2.45804
788 1 9.59306 10.1549 0.758581
789 1 10.0404 10.1647 1.60293
790 1 11.271 9.84447 1.65001
791 1 10.1449 10.6844 2.47715
792 1 10.6719 9.52678 0.152019
793 1 11.7992 9.68961 0.679484
794 1 11.7556 10.4229 0.0135793
795 1 11.6876 10.4889 3.22054
796 1 13.0279 9.83483 0.773144
797 1 12.2832 9.79942 1.43175
798 1 12.7591 10.3814 12.9165
799 1 12.3251 10.4021 2.51832
800 1 13.4262 9.71111 1.55114
801 1 8.74554 11.3929 1.63143
802 1 9.51179 11.8243 12.8348
803 1 8.96301 11.9757 2.43972
804 1 9.43349 11.3555 0.881351
805 1 9.94259 11.3768 1.6297
806 1 10.6031 11.741 0.0757382
807 1 10.1074 11.7407 2.49051
808 1 10.7225 10.07 0.905275
809 1 10.5924 11.1536 0.907751
810 1 11.7867 10.9616 0.808759
811 1 11.247 11.6201 2.45486
812 1 11.2366 11.0598 1.65354
813 1 12.3509 10.7459 1.68002
814 1 12.8406 11.5182 0.0783333
815 1 12.4178 11.528 2.47013
816 1 12.7967 10.9435 0.821776
817 1 8.89788 12.5661 1.6227
818 1 9.43151 13.071 0.184495
819 1 8.84898 13.1003 2.53976
820 1 9.54341 12.5288 0.833257
821 1 10.0542 12.3948 1.66928
822 1 10.5207 12.8654 0.0633837
823 1 9.89837 12.9261 2.44609
824 1 10.6368 12.2564 0.747909
825 1 11.1125 12.1801 1.63874
826 1 13.3934 12.1485 11.2467
827 1 11.0255 12.7924 2.35899
828 1 11.7198 12.1807 0.907079
829 1 12.3134 11.962 1.60979
830 1 11.6855 12.5297 12.8434
831 1 12.1709 12.6945 2.36647
832 1 12.7395 12.1615 0.969237
833 1 9.48335 9.55127 3.08759
834 1 10.0961 9.00192 4.70375
835 1 10.5635 9.44557 3.20729
836 1 10.8266 8.79165 4.15602
837 1 11.1971 10.4164 2.36085
838 1 11.8176 8.16886 3.29332
839 1 12.872 9.17871 3.2811
840 1 13.0438 8.61477 4.09569
841 1 9.51894 10.8641 3.37258
842 1 9.50549 10.1316 4.01269
843 1 10.6073 10.5926 3.28788
844 1 10.594 10.0257 4.06088
845 1 11.7305 9.87417 3.98604
846 1 11.7669 9.28988 3.23994
847 1 12.9499 10.3577 3.17393
848 1 12.7785 9.74768 4.05319
849 1 9.50488 11.9365 3.35626
850 1 9.44203 11.252 4.12732
851 1 10.689 11.6597 3.21883
852 1 10.6664 11.2762 4.10518
853 1 11.7544 11.4955 3.27073
854 1 11.7828 10.9288 4.13372
855 1 12.8415 11.4249 3.23757
856 1 12.8165 10.818 4.04918
857 1 9.46007 12.9807 3.38377
858 1 9.59725 12.3827 4.1399
859 1 10.5609 12.663 3.23845
860 1 10.7581 12.3195 4.13433
861 1 11.7661 12.6932 3.11525
862 1 11.702 12.2391 4.00096
863 1 12.8829 12.5097 3.20128
864 1 12.8113 11.9218 4.07348
865 1 13.3691 13.169 4.6532
866 1 13.3441 0.235328 5.73179
867 1 1.05916 13.1291 4.90645
868 1 1.04994 0.266221 5.71556
869 1 2.09165 12.5212 5.83666
870 1 2.21881 13.1115 5.06877
871 1 3.24022 13.4216 4.89025
872 1 3.35991 0.549635 5.64857
873 1 5.80375e-05 0.692358 4.8555
874 1 0.0253817 1.27632 5.80595
875 1 1.08588 0.856125 5.03619
876 1 1.24389 1.56306 5.68265
877 1 2.16826 0.46367 5.55992
878 1 2.2856 1.60063 5.70756
879 1 2.65904 0.928326 4.09759
880 1 3.31831 1.68706 5.59775
881 1 0.0253759 1.85099 4.96112
882 1 0.0908929 2.47699 5.64495
883 1 1.12249 2.0379 4.88011
884 1 1.27256 2.71843 5.86675
885 1 2.1359 2.10146 4.81546
886 1 2.37384 2.60528 5.65453
887 1 3.31969 2.83721 5.69556
888 1 3.84506 2.74645 6.58534
889 1 0.130047 3.08489 4.92144
890 1 13.3797 3.62678 5.70853
891 1 1.19543 3.03897 4.78971
892 1 1.15279 3.69327 5.72203
893 1 2.22521 3.24878 4.9451
894 1 2.26697 3.83395 5.77084
895 1 3.40487 3.22376 4.7204
896 1 3.47175 3.82297 5.65193
897 1 0.0145141 13.1946 8.04407
898 1 0.432528 0.341252 6.55795
899 1 0.52089 13.0968 7.11675
900 1 1.09833 13.1977 8.19682
901 1 1.66664 0.389069 6.51693
902 1 1.52947 13.27 7.39097
903 1 2.17423 13.2674 8.08845
904 1 2.7816 0.0405137 7.32903
905 1 3.38308 13.3407 8.09927
906 1 3.35184 0.491753 8.98064
907 1 3.93337 0.613946 6.34239
908 1 3.94849 0.0517384 7.23056
909 1 0.0310085 0.801301 8.29924
910 1 0.661508 1.36682 6.44558
911 1 0.540728 0.784945 7.38431
912 1 1.75691 0.85048 7.30554
913 1 1.72888 1.41264 6.52251
914 1 2.18154 0.974345 8.12636
915 1 2.86111 1.04246 7.35067
916 1 2.78214 1.58282 6.60416
917 1 2.83095 0.492135 6.44094
918 1 2.74591 0.515108 9.76249
919 1 3.91265 2.17788 7.46764
920 1 3.93895 1.20643 7.20274
921 1 0.0141965 1.86295 8.20236
922 1 0.621509 2.4119 6.54509
923 1 0.507682 1.83834 7.26606
924 1 1.11439 0.901815 8.09285
925 1 1.82374 2.50635 6.64695
926 1 1.58921 1.94916 7.43723
927 1 2.29057 2.14594 8.16134
928 1 2.82248 2.66311 6.59913
929 1 2.83268 2.1326 7.39314
930 1 3.17223 1.70007 8.99349
931 1 3.42315 3.36628 8.08812
932 1 3.4948 2.18729 8.18864
933 1 13.3685 2.96402 7.88696
934 1 0.530678 3.50645 6.4499
935 1 0.600878 3.04245 7.26364
936 1 1.13775 3.07481 8.24676
937 1 1.82661 3.66333 6.60881
938 1 1.63016 3.22872 7.29142
939 1 2.3444 3.1697 8.21442
940 1 2.85761 3.72809 6.46718
941 1 2.83281 3.23902 7.43864
942 1 3.27132 3.91894 8.9322
943 1 4.48783 4.08737 5.69084
944 1 3.83272 1.70182 6.39142
945 1 4.4249 0.130822 4.9099
946 1 4.48516 0.871457 5.50185
947 1 5.57967 0.3008 4.71576
948 1 5.55728 0.834823 5.52469
949 1 6.68315 0.343274 4.85779
950 1 6.75095 0.990885 5.73057
951 1 7.64196 0.262913 4.8229
952 1 8.385 0.817232 6.50469
953 1 3.35958 1.09977 4.76995
954 1 3.89712 3.38356 3.94313
955 1 5.78175 1.48558 4.74449
956 1 5.56192 1.80772 5.747
957 1 6.79606 1.46087 4.95626
958 1 6.69584 3.21875 5.72059
959 1 7.83029 1.38142 4.86636
960 1 7.91281 1.90506 5.58108
961 1 4.49557 1.94654 5.60872
962 1 5.02177 3.59209 7.39032
963 1 5.53 2.50647 4.85125
964 1 4.91444 3.00417 6.52571
965 1 6.69175 2.59271 4.85416
966 1 6.59144 4.23909 5.71247
967 1 8.01529 2.50389 4.8588
968 1 7.63579 3.04199 5.58361
969 1 5.65904 3.50617 5.02339
970 1 3.90905 4.03657 6.62791
971 1 5.12772 4.60402 4.01776
972 1 5.60384 4.70978 4.67844
973 1 6.71371 3.82258 4.79772
974 1 6.82804 4.86506 4.86577
975 1 7.78008 4.24832 5.69037
976 1 8.36986 4.2676 6.42386
977 1 4.57078 0.104713 8.00656
978 1 4.87199 0.776145 6.37273
979 1 4.95931 0.213874 7.18727
980 1 5.66108 0.371504 7.90929
981 1 5.97513 0.93788 6.42911
982 1 6.21453 0.307877 7.17129
983 1 6.55833 13.2102 8.88296
984 1 7.88706 0.706721 5.74237
985 1 6.59642 0.488741 8.11654
986 1 7.61175 0.337721 8.1189
987 1 8.2849 0.354319 7.41227
988 1 8.31498 13.1289 6.65891
989 1 4.40097 1.21644 8.00542
990 1 4.95785 1.93896 6.50281
991 1 5.08295 1.32397 7.20284
992 1 5.45753 1.40771 8.09097