data.lammps (converted from cfg to data.lammps)
    
2298  atoms
1  atom types
0.0   13.4375  xlo xhi
0.0   13.4375  ylo yhi
0.0   12.952  zlo zhi
0.0  0.0 0.0 xy xz yz
    
    
    
Atoms
  
1 1 0.0326562 13.1592 1.62396
2 1 0.584656 0.371368 12.8766
3 1 13.4133 0.363408 2.32428
4 1 0.4857 13.3245 0.80156
5 1 1.1087 13.2179 1.5621
6 1 1.79452 0.24231 0.0673342
7 1 1.18818 0.328507 2.38607
8 1 1.68201 13.0076 0.728534
9 1 2.12264 13.1855 1.52155
10 1 2.94393 0.173651 12.9434
11 1 2.33333 0.167466 2.51713
12 1 2.83519 13.0017 0.810556
13 1 3.39125 13.0642 1.6884
14 1 3.90019 0.351374 12.9434
15 1 3.37929 0.247679 2.36646
16 1 3.9807 13.2252 0.811396
17 1 13.3854 0.88894 1.55951
18 1 0.702002 1.44406 12.9166
19 1 0.0688677 1.42384 2.3919
20 1 0.592145 0.933766 0.821711
21 1 1.09162 0.868759 1.64654
22 1 1.68356 1.27308 12.8602
23 1 1.1738 1.41244 2.56143
24 1 1.68326 0.755146 0.816354
25 1 2.25734 0.69363 1.6212
26 1 2.82397 1.3753 0.0768317
27 1 2.22278 1.21462 2.39815
28 1 2.85994 0.758723 0.740865
29 1 3.30342 0.739139 1.56369
30 1 3.9553 1.43261 0.169749
31 1 3.26311 1.34048 2.40265
32 1 4.06159 0.828631 0.894593
33 1 0.0300899 2.00948 1.58144
34 1 0.565024 2.40883 12.7883
35 1 13.4289 2.62776 2.33038
36 1 0.657156 1.9802 0.863682
37 1 1.12485 2.02713 1.73264
38 1 1.73402 2.3526 0.0122587
39 1 1.12741 2.51905 2.54461
40 1 1.7607 1.81211 0.809815
41 1 2.13589 1.84669 1.68348
42 1 2.8659 2.42703 0.0713282
43 1 2.34088 2.38126 2.4757
44 1 2.8085 1.92649 0.93249
45 1 3.43574 1.87331 1.62375
46 1 3.9635 2.64521 12.9373
47 1 3.43135 2.50036 2.40577
48 1 3.9259 2.02097 0.800523
49 1 0.0122762 3.25405 1.54662
50 1 0.500806 3.62243 0.0202356
51 1 0.0914755 3.72572 2.32442
52 1 0.606229 3.03338 0.688737
53 1 1.14838 3.07908 1.58908
54 1 1.61347 3.50039 12.9161
55 1 1.1667 3.58304 2.45347
56 1 1.65144 2.94037 0.738564
57 1 2.25992 2.95644 1.50111
58 1 2.71904 3.62169 0.120192
59 1 2.32267 3.4217 2.38866
60 1 2.82064 3.10983 0.854925
61 1 3.44391 3.09707 1.64361
62 1 3.85185 3.78106 12.8872
63 1 3.39884 3.58049 2.38953
64 1 4.02285 3.18713 0.768388
65 1 0.54893 0.292193 3.09303
66 1 0.515403 13.0946 4.03356
67 1 1.59409 0.192807 3.33181
68 1 1.68633 12.9923 4.06105
69 1 2.83299 0.199009 3.2054
70 1 2.76671 13.0781 4.05063
71 1 3.94532 0.466647 3.23253
72 1 3.95622 13.2921 3.97121
73 1 0.560615 1.39714 3.36871
74 1 0.486251 0.700444 3.98489
75 1 1.69685 1.36001 3.38212
76 1 1.62165 0.749842 4.12963
77 1 2.77595 1.25335 3.36227
78 1 2.84677 0.73064 4.11212
79 1 3.89356 1.54723 3.09699
80 1 4.00619 0.972784 3.99523
81 1 0.460468 2.59092 3.21807
82 1 0.580492 1.95444 4.04724
83 1 1.74546 2.34765 3.25857
84 1 1.60141 1.98587 4.19755
85 1 2.9142 2.37107 3.22178
86 1 2.8274 2.01732 4.06392
87 1 4.03521 2.6223 3.2323
88 1 3.96913 1.91894 3.99282
89 1 0.609009 3.6519 3.23705
90 1 0.67773 3.01967 4.06053
91 1 1.72825 3.50488 3.19549
92 1 1.72443 3.04218 3.90354
93 1 2.79988 3.56878 3.26517
94 1 2.80156 3.04351 4.11379
95 1 3.82893 3.6888 3.28082
96 1 3.97105 3.07294 4.02824
97 1 4.60154 13.3972 1.54011
98 1 5.02262 0.583866 12.9119
99 1 4.4408 0.504737 2.35983
100 1 5.10708 13.4294 0.860254
101 1 5.66743 13.3646 1.70268
102 1 6.17008 0.478614 0.0670359
103 1 5.56174 0.579107 2.43825
104 1 6.15485 0.0177124 0.887848
105 1 6.80506 0.193673 1.57941
106 1 7.15494 0.801298 12.8021
107 1 6.70422 0.723647 2.48417
108 1 7.17337 0.330936 0.794757
109 1 7.89831 0.479676 1.67446
110 1 8.3578 0.905244 12.851
111 1 7.71565 0.913659 2.52734
112 1 8.22689 0.36903 0.695015
113 1 4.47637 1.16395 1.66314
114 1 5.05511 1.68752 12.9174
115 1 4.53039 1.73 2.49336
116 1 5.16963 1.1532 0.836144
117 1 5.74733 1.03787 1.60032
118 1 6.16894 1.73215 12.9366
119 1 5.53802 1.79122 2.32597
120 1 6.20546 1.23153 0.729519
121 1 6.72723 1.317 1.58259
122 1 7.36853 1.88461 0.0347362
123 1 6.74744 1.92339 2.42827
124 1 7.35837 1.39354 0.782805
125 1 7.73786 1.5045 1.66015
126 1 8.53506 2.06821 12.873
127 1 7.93323 2.02483 2.41557
128 1 8.45148 1.39706 0.70829
129 1 4.4098 2.29972 1.54953
130 1 4.98116 2.63396 12.9211
131 1 4.58556 2.77197 2.39178
132 1 5.13959 2.19274 0.914213
133 1 5.71141 2.32912 1.63313
134 1 6.22303 2.73923 12.9359
135 1 5.69343 2.98123 2.35723
136 1 6.19211 2.41098 0.853085
137 1 6.85955 2.46141 1.59031
138 1 7.36219 3.09592 12.8477
139 1 6.79336 3.14127 2.35989
140 1 7.28678 2.50151 0.693165
141 1 7.81001 2.63875 1.59514
142 1 8.33798 3.12373 0.0126014
143 1 7.89006 3.09144 2.51058
144 1 8.42194 2.57985 0.824972
145 1 4.59959 3.34114 1.56276
146 1 5.16908 3.97362 0.0682899
147 1 4.53622 3.86546 2.43171
148 1 5.0441 3.34998 0.67983
149 1 5.6199 3.49591 1.51392
150 1 6.27162 4.08951 0.0262269
151 1 5.68456 3.99506 2.53113
152 1 6.2289 3.54092 0.740818
153 1 7.37901 3.54337 0.896527
154 1 7.19223 4.06324 0.00129289
155 1 6.75381 3.65859 1.5495
156 1 8.00612 3.74695 1.63633
157 1 7.79234 4.28757 2.35795
158 1 8.31916 4.37592 12.8937
159 1 8.27566 4.24876 3.19681
160 1 8.45997 3.82304 0.702213
161 1 5.02122 0.642781 3.18819
162 1 5.14791 13.3638 3.95922
163 1 6.10146 0.847848 3.25606
164 1 6.1352 0.0783694 3.87931
165 1 7.22701 0.856401 3.30846
166 1 7.31176 0.364245 4.08593
167 1 8.5557 0.907424 3.06333
168 1 8.29068 0.464978 4.04881
169 1 5.15676 1.64859 3.29828
170 1 5.02888 1.03907 4.14658
171 1 6.15476 1.88028 3.09286
172 1 6.2832 1.35455 4.08481
173 1 7.32423 2.06073 3.20865
174 1 7.35152 1.44925 3.94056
175 1 8.54362 2.04972 3.26308
176 1 8.44468 1.39781 3.92895
177 1 5.15974 2.71114 3.14547
178 1 4.94128 2.20204 3.96432
179 1 6.20986 2.93952 3.1315
180 1 6.25551 2.35575 4.07076
181 1 7.24128 3.2209 3.19389
182 1 7.26173 2.65177 3.92128
183 1 8.4936 3.17464 3.18048
184 1 8.36475 2.56777 4.05484
185 1 4.9284 3.91062 3.19784
186 1 5.11236 3.31818 4.01103
187 1 6.67981 4.29331 2.34316
188 1 6.05611 3.37057 3.98852
189 1 7.1736 4.16529 3.10226
190 1 7.21738 3.64447 4.16811
191 1 8.36076 4.78204 4.01349
192 1 7.90078 3.68914 4.88992
193 1 8.88522 0.340098 1.5345
194 1 9.66765 0.890306 12.9104
195 1 9.06242 0.923061 2.39814
196 1 9.50856 0.392591 0.909702
197 1 10.2356 0.301494 1.62918
198 1 10.6174 0.632916 12.8853
199 1 10.0629 0.847045 2.3196
200 1 10.6666 0.0857728 0.793414
201 1 11.2257 0.0458134 1.68199
202 1 11.7494 0.536859 0.0246793
203 1 11.2257 0.692636 2.30999
204 1 11.6432 13.3796 0.718039
205 1 12.4048 13.3896 1.68627
206 1 12.9334 0.299066 12.9466
207 1 12.2638 0.61497 2.56912
208 1 12.7065 13.3117 0.78536
209 1 8.80238 1.56122 1.58736
210 1 9.57259 2.12518 12.9494
211 1 9.03257 2.04038 2.39279
212 1 9.57195 1.41098 0.807239
213 1 9.90703 1.48022 1.57726
214 1 10.521 1.76217 12.815
215 1 10.037 2.01286 2.36088
216 1 10.6271 1.26878 0.737682
217 1 11.2088 1.24002 1.46027
218 1 11.7079 1.76492 0.0523737
219 1 11.0945 1.72313 2.28995
220 1 11.8234 0.98762 0.8119
221 1 12.378 0.91744 1.57889
222 1 12.9353 1.53002 12.9238
223 1 12.3278 1.63834 2.4586
224 1 12.9122 0.99233 0.680065
225 1 8.87222 2.61011 1.53638
226 1 9.41769 3.14571 12.7999
227 1 9.02927 3.13213 2.3419
228 1 9.62051 2.65456 0.786768
229 1 10.2083 2.50674 1.5919
230 1 10.6744 2.95273 12.9484
231 1 10.112 3.13698 2.52076
232 1 10.7007 2.36281 0.709832
233 1 11.2076 2.2747 1.6058
234 1 11.7918 2.92212 12.9188
235 1 11.2927 2.87228 2.42158
236 1 11.8527 2.20782 0.768054
237 1 12.2969 1.96713 1.54305
238 1 12.8362 2.69214 12.8896
239 1 12.3803 2.76614 2.33091
240 1 12.9505 2.10352 0.83938
241 1 9.01608 3.76466 1.62756
242 1 9.54128 4.19742 12.9003
243 1 8.94658 4.32696 2.50558
244 1 9.51689 3.60841 0.782504
245 1 10.13 3.65745 1.65727
246 1 10.5359 4.02054 0.10468
247 1 10.181 4.23839 2.53204
248 1 10.6447 3.58504 0.873509
249 1 11.3178 3.39136 1.58912
250 1 11.7098 4.00229 0.0737313
251 1 11.2559 3.87685 2.4555
252 1 11.7598 3.34828 0.779892
253 1 12.3171 3.18899 1.51825
254 1 12.7889 3.82951 12.8828
255 1 12.4083 3.85906 2.34264
256 1 13.0124 3.21797 0.764641
257 1 9.69748 0.779886 3.21976
258 1 9.39823 0.369272 4.11468
259 1 10.7613 0.685957 3.1776
260 1 10.6741 0.212952 4.0145
261 1 11.8299 0.436278 3.37845
262 1 11.7185 13.3786 4.07248
263 1 12.8664 0.424883 3.23918
264 1 12.9013 13.2919 4.17302
265 1 9.59753 1.96338 3.2
266 1 9.52564 1.53159 4.00696
267 1 10.6468 1.73369 3.21732
268 1 10.6004 1.3076 4.06993
269 1 11.7029 1.65283 3.23042
270 1 11.74 1.17012 3.97427
271 1 12.9605 1.71958 3.08272
272 1 12.826 1.07613 3.84734
273 1 9.52949 3.14678 3.27892
274 1 9.55566 2.55098 4.00576
275 1 10.6911 2.77823 3.15215
276 1 10.6974 2.49032 4.13156
277 1 11.8268 2.88041 3.32768
278 1 11.7321 2.25613 3.94906
279 1 12.8123 2.69197 3.20567
280 1 12.8838 2.16634 4.07952
281 1 9.54397 4.24218 3.24483
282 1 9.43287 3.66183 4.02906
283 1 10.6433 4.06181 3.24657
284 1 10.5653 3.54719 3.8992
285 1 11.8127 4.00988 3.18104
286 1 11.6684 3.40728 4.03356
287 1 13.0102 3.76265 3.08739
288 1 12.9388 3.24978 4.02195
289 1 13.3222 4.41906 1.53723
290 1 0.428288 4.72391 12.9105
291 1 13.4145 4.869 2.42864
292 1 0.519843 4.26305 0.785266
293 1 1.24887 4.19383 1.51759
294 1 1.74653 4.60766 0.0141226
295 1 1.02632 4.58129 2.27198
296 1 1.75204 4.01975 0.790278
297 1 2.34417 4.08634 1.72904
298 1 2.89531 4.81162 12.8549
299 1 2.18969 4.55363 2.59347
300 1 2.82107 4.26556 0.849151
301 1 3.35813 4.26634 1.62593
302 1 3.87906 4.96274 0.0801015
303 1 3.50114 4.79734 2.35163
304 1 3.84826 4.19727 0.758086
305 1 0.0451202 5.3875 1.44603
306 1 0.580337 5.9442 0.0921742
307 1 13.4028 5.93689 2.32223
308 1 0.70568 5.30869 0.693266
309 1 1.10095 5.31511 1.64817
310 1 1.70658 5.82651 12.7668
311 1 1.09964 5.77282 2.40859
312 1 1.71441 5.272 0.757246
313 1 2.27264 5.14865 1.68551
314 1 2.67335 5.90391 12.8868
315 1 2.25991 5.74397 2.34399
316 1 2.71553 5.23201 0.776181
317 1 3.3027 5.37739 1.57819
318 1 3.92446 5.94096 12.8665
319 1 3.33367 5.90467 2.3977
320 1 3.87931 5.40029 0.860583
321 1 13.3951 6.46223 1.62954
322 1 0.612226 6.98386 12.9116
323 1 0.0674459 7.12947 2.54068
324 1 0.530719 6.48032 0.865729
325 1 1.10898 6.39538 1.62551
326 1 1.64146 6.87004 12.8652
327 1 1.06277 6.9375 2.42202
328 1 1.68694 6.32573 0.794956
329 1 2.29234 6.38175 1.48742
330 1 2.67823 7.04765 0.0264661
331 1 2.14946 6.78447 2.36507
332 1 2.88629 6.22356 0.718095
333 1 3.27289 6.53542 1.74769
334 1 3.77181 7.05271 0.12987
335 1 3.33774 7.07427 2.56736
336 1 3.88361 6.53411 0.820003
337 1 13.3007 7.59967 1.67788
338 1 0.494899 8.18165 0.0399024
339 1 0.07326 8.21398 2.38837
340 1 0.482781 7.55725 0.799519
341 1 1.04578 7.47579 1.61071
342 1 1.61949 7.98728 12.878
343 1 1.1205 8.0969 2.37809
344 1 1.4978 7.44575 0.793087
345 1 2.27044 7.48708 1.59776
346 1 2.90712 8.22132 0.0191418
347 1 2.22052 8.02711 2.24384
348 1 2.65431 7.49288 0.762785
349 1 3.26394 7.48557 1.63393
350 1 3.95049 8.11988 0.0330605
351 1 3.25643 9.27269 3.43804
352 1 3.88187 7.7095 0.88694
353 1 0.511708 4.81269 3.20208
354 1 0.515246 4.21413 3.97269
355 1 1.53292 4.70806 3.14142
356 1 1.71573 4.18347 4.12174
357 1 2.91707 4.76015 3.12716
358 1 2.64152 4.15779 4.01096
359 1 4.05192 4.7604 3.25635
360 1 3.79951 4.23752 4.00745
361 1 0.63038 5.83585 3.18012
362 1 0.413363 5.26586 4.06644
363 1 1.79286 5.78414 3.331
364 1 1.6653 5.16301 4.06833
365 1 2.8264 5.79913 3.24678
366 1 2.7146 5.22652 4.06054
367 1 3.86003 6.04201 3.31764
368 1 3.87586 5.4426 3.85698
369 1 0.658503 6.90314 3.25003
370 1 0.469114 6.32378 4.0091
371 1 1.78618 6.99192 3.22167
372 1 1.47898 6.39402 4.06198
373 1 2.80218 6.81756 3.28591
374 1 2.75919 6.3416 4.221
375 1 5.06716 7.36007 3.25822
376 1 3.95716 6.66913 4.14533
377 1 0.616496 8.09175 3.32142
378 1 0.474931 7.41785 4.01403
379 1 1.72157 7.95527 3.17404
380 1 1.62246 7.5295 4.11732
381 1 4.02847 8.17648 3.27039
382 1 2.77001 7.42262 4.10871
383 1 3.92875 7.18405 3.30812
384 1 3.78075 7.67506 4.19388
385 1 4.44941 4.32658 1.59345
386 1 5.0283 5.15227 12.9247
387 1 4.61778 4.98772 2.43174
388 1 5.01939 4.60627 0.766021
389 1 5.68183 5.11197 2.3163
390 1 6.1675 4.75589 0.873118
391 1 6.07245 5.05876 3.41797
392 1 5.59066 4.52054 1.60859
393 1 6.72451 4.80098 1.55977
394 1 7.33544 5.24466 12.9211
395 1 6.63395 5.33535 2.65885
396 1 7.32341 4.66245 0.694855
397 1 7.7486 4.87427 1.58744
398 1 8.42456 5.46006 12.9501
399 1 7.70662 5.33638 2.48362
400 1 8.47625 4.88194 0.926284
401 1 4.41953 5.42085 1.54397
402 1 4.93746 6.07773 0.0260746
403 1 4.50851 5.98896 2.47786
404 1 5.11407 5.62019 0.959089
405 1 5.62496 5.79094 1.70482
406 1 6.0087 6.25031 12.927
407 1 5.56741 6.27773 2.47808
408 1 6.1821 5.72679 0.75023
409 1 6.71579 5.73384 1.72218
410 1 7.18459 6.47096 12.9113
411 1 6.75697 6.29083 2.4753
412 1 7.16258 5.79203 0.700825
413 1 7.67625 6.00492 1.63147
414 1 8.22339 6.39204 12.8214
415 1 7.8154 6.47048 2.49865
416 1 8.30003 5.82354 0.888389
417 1 4.36822 6.54616 1.60938
418 1 5.02393 7.30805 12.9177
419 1 4.51305 7.14999 2.40718
420 1 5.02386 6.69678 0.831919
421 1 5.62212 6.93992 1.55933
422 1 6.09919 7.36061 0.060333
423 1 5.56718 7.26505 2.44346
424 1 6.12413 6.79415 0.734219
425 1 6.65108 6.92532 1.60688
426 1 7.26253 7.54586 12.9072
427 1 6.70847 7.36098 2.35511
428 1 7.28951 6.95203 0.82573
429 1 7.8851 7.0749 1.66823
430 1 8.3675 6.92569 0.709573
431 1 7.74126 7.64805 2.43068
432 1 8.85457 7.04941 1.53854
433 1 4.35161 7.79941 1.68386
434 1 5.02133 8.3666 12.7979
435 1 4.49638 8.4561 2.36344
436 1 4.92604 7.73956 0.825821
437 1 5.48965 7.96806 1.63127
438 1 6.15803 8.50794 0.10214
439 1 5.68546 8.38442 2.4626
440 1 6.13859 7.98077 0.903034
441 1 6.75551 8.09001 1.63089
442 1 7.21211 8.75542 0.0282197
443 1 6.70089 8.58679 2.44266
444 1 7.28542 8.05846 0.785602
445 1 7.81188 8.13471 1.51239
446 1 8.45135 8.07672 0.693104
447 1 7.90534 9.18059 1.62138
448 1 8.40795 7.4972 12.898
449 1 5.14166 4.91819 3.32381
450 1 4.9425 4.36426 4.12187
451 1 6.19647 5.71815 4.1113
452 1 6.20872 4.10534 3.52866
453 1 7.29464 5.25531 3.34817
454 1 7.30901 4.88125 4.1488
455 1 8.47891 5.46775 3.36341
456 1 8.29869 3.80362 4.00383
457 1 5.03158 5.44023 4.10401
458 1 4.42295 5.45955 4.76617
459 1 6.19193 6.27807 3.2782
460 1 6.08306 6.85941 3.9729
461 1 7.32113 6.50429 3.27706
462 1 7.8731 5.9801 4.78236
463 1 8.38117 6.50391 3.24104
464 1 7.65108 5.52135 5.65562
465 1 5.07049 7.82686 4.19368
466 1 5.03698 6.10593 3.32988
467 1 6.2146 7.50398 3.22136
468 1 4.9559 6.67797 3.91707
469 1 7.15916 8.13225 3.97148
470 1 7.19551 7.67222 3.18978
471 1 8.4 7.6273 3.26346
472 1 8.30291 7.11239 3.97907
473 1 5.04964 8.40615 3.23563
474 1 4.60983 7.685 4.85239
475 1 6.0996 7.9814 4.06962
476 1 6.70745 8.05194 4.90957
477 1 7.24242 8.74679 3.2924
478 1 6.62908 8.63631 5.74951
479 1 7.73936 8.74605 2.52744
480 1 8.20904 8.22492 4.06537
481 1 9.00343 4.87177 1.76774
482 1 9.38999 5.38814 12.8979
483 1 8.7673 5.5049 2.3951
484 1 9.47739 4.6971 0.716418
485 1 10.0139 4.67894 1.53183
486 1 10.7083 5.21852 0.0117838
487 1 9.90829 5.28115 2.39086
488 1 10.6582 4.80451 0.791894
489 1 11.0791 4.5286 1.5857
490 1 11.8516 5.23248 0.0347395
491 1 11.152 5.09428 2.48931
492 1 11.7481 4.56723 0.820153
493 1 12.1641 4.39197 1.70027
494 1 12.9404 4.96998 12.9338
495 1 12.3757 5.07682 2.4456
496 1 12.7614 4.259 0.845867
497 1 8.97118 6.07775 1.51006
498 1 9.44445 6.47751 0.0826292
499 1 9.49237 6.48867 3.3304
500 1 9.57888 5.74549 0.867954
501 1 10.0774 5.84035 1.63255
502 1 10.5064 6.48889 0.0171589
503 1 9.9495 6.4163 2.49994
504 1 10.6265 5.8706 0.795452
505 1 11.1402 5.7238 1.76363
506 1 11.6533 6.27871 0.0441791
507 1 11.2365 6.30852 2.46958
508 1 11.668 5.69148 0.935725
509 1 12.3052 5.51345 1.52304
510 1 12.8448 6.10957 12.9164
511 1 12.2893 6.16604 2.27713
512 1 12.9272 5.5081 0.727137
513 1 8.92609 6.52075 2.47479
514 1 9.5626 7.73456 12.8291
515 1 8.90724 7.60999 2.42107
516 1 9.46094 7.02402 0.646929
517 1 9.89301 7.00829 1.71123
518 1 10.6353 7.48836 12.9002
519 1 10.027 7.50862 2.48202
520 1 10.4533 7.02105 1.00491
521 1 11.174 6.85212 1.65777
522 1 11.8023 7.28819 12.8972
523 1 11.1208 7.4513 2.41526
524 1 11.5731 6.82798 0.806684
525 1 12.2676 6.7695 1.51674
526 1 12.7932 7.13172 0.0668473
527 1 12.2989 7.25943 2.44441
528 1 12.7534 6.50528 0.784937
529 1 8.91794 8.1326 1.60317
530 1 9.51343 8.80905 0.0345024
531 1 8.36496 8.83681 3.3959
532 1 9.50129 8.1739 0.827211
533 1 9.90207 8.07376 1.68838
534 1 10.7021 8.61478 12.8962
535 1 10.0735 8.66066 2.4193
536 1 10.6058 8.05245 0.86687
537 1 11.0272 7.9969 1.71576
538 1 11.8204 8.40295 12.95
539 1 11.1423 8.6418 2.56171
540 1 11.6246 7.83072 0.856059
541 1 12.2565 7.77807 1.73315
542 1 12.9323 8.23854 12.9124
543 1 12.3609 8.39287 2.49274
544 1 12.8958 7.7409 0.819195
545 1 9.4964 5.40497 3.3335
546 1 9.49517 4.73882 4.12753
547 1 10.5507 5.22657 3.21033
548 1 10.7212 4.73009 4.00884
549 1 11.659 5.03115 3.1925
550 1 11.6721 4.47514 4.02645
551 1 12.7644 4.84931 3.31602
552 1 12.672 4.21462 4.05892
553 1 9.51156 7.17628 4.17532
554 1 9.59446 5.93895 4.14784
555 1 10.6472 6.2303 3.22949
556 1 10.8038 5.80152 4.04797
557 1 11.8568 6.15591 3.19844
558 1 11.7527 5.69256 4.07836
559 1 12.9865 6.10419 3.13507
560 1 12.8413 5.48516 3.88647
561 1 9.52371 8.61803 3.15436
562 1 9.53747 7.6685 3.34909
563 1 10.5915 7.4144 3.29289
564 1 10.5285 6.82891 4.11365
565 1 11.7218 7.2403 3.28995
566 1 11.7632 6.72985 4.03882
567 1 12.7959 7.1377 3.2025
568 1 12.876 6.60195 4.0199
569 1 8.87644 8.74351 2.56052
570 1 8.77439 8.18989 4.83994
571 1 10.6372 8.49914 3.2343
572 1 10.6267 8.03872 4.0207
573 1 11.7749 8.33577 3.25666
574 1 11.6737 7.89321 4.12612
575 1 12.9411 8.25436 3.25027
576 1 12.8382 7.74023 4.03951
577 1 0.0375268 8.83383 1.64752
578 1 0.52276 9.24695 12.9415
579 1 13.3969 9.28491 2.45554
580 1 0.529244 8.71676 0.77767
581 1 1.15948 8.68402 1.58579
582 1 1.68474 9.07451 0.0964753
583 1 1.1973 9.11757 2.55393
584 1 1.77433 8.50119 0.833549
585 1 2.27459 8.70747 1.64722
586 1 2.76244 9.14652 0.0384678
587 1 2.5071 9.19012 2.48823
588 1 2.82819 8.59946 0.908699
589 1 3.43915 8.60207 1.64668
590 1 3.93614 9.35102 12.8756
591 1 3.27776 8.14728 2.52747
592 1 3.96194 8.86483 0.715312
593 1 13.3155 9.81761 1.70435
594 1 0.586501 10.352 0.0767868
595 1 0.0866222 10.4159 2.35795
596 1 0.557468 9.85681 0.860969
597 1 1.14648 9.71965 1.58689
598 1 1.70011 10.3121 0.0484476
599 1 1.1329 10.1086 2.43965
600 1 1.59913 9.67982 0.754666
601 1 2.26797 9.66702 1.53019
602 1 2.76525 10.1799 12.9167
603 1 2.11623 10.1364 2.38603
604 1 2.80666 9.73658 0.840911
605 1 3.37297 9.73992 1.71852
606 1 3.8044 10.4611 0.020314
607 1 3.25878 10.4211 2.3615
608 1 3.90221 9.9302 0.89963
609 1 0.0431056 11.0137 1.53131
610 1 0.511077 11.5514 0.0170066
611 1 0.0147533 11.5047 2.38005
612 1 0.610386 10.9464 0.771522
613 1 1.1274 10.8377 1.61478
614 1 1.82507 11.4065 0.0209177
615 1 1.12643 11.2922 2.39271
616 1 1.69474 10.8161 0.880989
617 1 2.28313 10.749 1.55609
618 1 2.84508 11.4173 12.8997
619 1 2.20458 11.3247 2.49461
620 1 2.80419 10.8875 0.772782
621 1 3.39442 10.9624 1.69285
622 1 4.06941 11.5186 12.9039
623 1 3.38472 11.5484 2.50037
624 1 3.97077 10.8933 0.786499
625 1 13.4114 12.0754 1.54682
626 1 0.522535 12.6297 0.0820286
627 1 13.4087 12.6175 2.3878
628 1 0.728261 12.0923 0.808808
629 1 1.10485 12.0547 1.63362
630 1 1.57236 12.4966 12.9241
631 1 1.13294 12.569 2.41497
632 1 1.83348 11.9595 0.890513
633 1 2.22833 11.8279 1.73022
634 1 2.72206 12.5747 12.9158
635 1 2.21642 12.6012 2.30026
636 1 2.94555 11.9151 0.834565
637 1 3.40344 12.1433 1.6885
638 1 3.90425 12.6997 0.0414249
639 1 3.44755 12.621 2.62323
640 1 3.93742 12.03 0.779906
641 1 0.630712 9.19894 3.22936
642 1 0.508166 8.63725 4.04753
643 1 2.01896 9.06327 3.21601
644 1 1.60804 8.61024 4.01423
645 1 2.75447 7.96697 3.23799
646 1 2.79857 8.47926 3.97064
647 1 3.45297 9.27846 2.50692
648 1 3.86827 8.68799 3.93057
649 1 0.620826 10.3964 3.20483
650 1 0.577529 9.7816 4.00129
651 1 1.76065 10.3554 3.34048
652 1 1.57014 9.6532 3.91964
653 1 2.80992 10.3567 3.22084
654 1 2.81286 9.77076 4.08902
655 1 3.89162 10.3332 3.13721
656 1 4.07283 9.82442 3.95877
657 1 0.471447 11.4247 3.24053
658 1 0.59318 10.8863 4.07443
659 1 1.54377 11.4093 3.20518
660 1 1.66011 10.9053 4.12832
661 1 2.78221 11.3703 3.26634
662 1 2.91579 10.8579 4.05118
663 1 3.95623 11.4928 3.13683
664 1 4.001 10.8286 4.02329
665 1 0.627374 12.5882 3.13507
666 1 0.398044 12.1057 3.93723
667 1 1.6768 12.4373 3.27546
668 1 1.48952 11.8858 4.10581
669 1 2.64212 12.4905 3.20852
670 1 2.70135 11.9813 4.03119
671 1 3.79208 12.6118 3.4331
672 1 3.98962 11.9192 4.01807
673 1 4.52193 8.96295 1.47392
674 1 5.02893 9.50793 0.0799565
675 1 4.45867 9.3448 2.64065
676 1 5.06422 8.822 0.665027
677 1 5.52893 9.08933 1.72584
678 1 6.18074 10.7202 12.8669
679 1 5.77176 9.54804 2.51701
680 1 5.98732 9.16507 0.891332
681 1 6.64154 9.21787 1.63562
682 1 7.47257 9.74302 0.0988941
683 1 6.75358 9.69418 2.41857
684 1 7.20707 9.25398 0.975525
685 1 8.41752 9.26884 0.866133
686 1 8.44985 9.76777 0.0105956
687 1 7.75219 10.3736 1.69669
688 1 8.30076 8.70892 0.120625
689 1 4.52153 9.87182 1.69638
690 1 5.04714 10.6851 0.0399775
691 1 4.46309 10.5335 2.3765
692 1 4.98319 10.103 0.801009
693 1 5.52623 10.2083 1.52492
694 1 5.4852 10.5648 12.1251
695 1 5.62775 10.5446 2.50077
696 1 6.22274 9.68946 0.0214957
697 1 6.17886 10.2444 0.788703
698 1 7.37076 10.9141 12.9442
699 1 6.69901 10.8588 2.41187
700 1 6.68059 10.3197 1.62669
701 1 7.25208 10.3121 0.803348
702 1 8.59086 10.8602 12.8871
703 1 7.83539 11.0815 2.43227
704 1 8.32448 10.3787 0.86974
705 1 4.3826 11.1483 1.62892
706 1 5.14056 11.7763 12.8873
707 1 4.49905 11.6829 2.33282
708 1 5.09811 11.2188 0.905524
709 1 5.61376 11.2173 1.60488
710 1 6.17831 11.9124 12.9402
711 1 5.60199 11.7252 2.46157
712 1 6.26659 11.3181 0.730897
713 1 6.75741 11.4145 1.69189
714 1 7.37571 12.184 0.0309114
715 1 6.69694 11.9952 2.48294
716 1 7.28119 11.4434 0.761614
717 1 7.78174 11.5736 1.57254
718 1 8.4215 12.1256 0.0183949
719 1 7.90551 12.1998 2.43872
720 1 8.4212 11.4423 0.719561
721 1 4.52494 12.2482 1.51099
722 1 4.94845 12.9205 0.0345238
723 1 4.44413 12.8053 2.35688
724 1 5.15633 12.2874 0.780739
725 1 5.65384 12.3512 1.66774
726 1 6.06063 12.9526 12.936
727 1 5.68218 12.847 2.53771
728 1 6.23375 12.4127 0.818477
729 1 6.69503 12.4719 1.75729
730 1 7.28569 13.1942 12.8072
731 1 6.81318 13.1588 2.4266
732 1 7.21884 12.6937 0.832237
733 1 7.75436 12.6694 1.58498
734 1 8.35786 13.2232 0.0670502
735 1 7.90203 13.2124 2.31715
736 1 8.32476 12.6561 0.841073
737 1 5.09194 9.49526 3.18973
738 1 4.88616 8.91871 4.03245
739 1 6.18374 9.69641 3.53855
740 1 6.03357 8.96486 4.26696
741 1 7.80567 9.83866 2.40055
742 1 7.21523 9.38157 4.03902
743 1 8.25568 9.8137 3.22479
744 1 9.12366 9.27924 4.842
745 1 4.93414 10.5867 3.10049
746 1 5.27978 10.0524 3.95299
747 1 6.14571 10.7834 3.3329
748 1 6.4693 10.2039 4.5325
749 1 7.22682 11.0719 3.20234
750 1 7.42283 10.4103 4.05129
751 1 8.34364 11.0271 3.2112
752 1 8.53362 10.4522 3.97274
753 1 5.04621 11.6303 3.30463
754 1 5.15129 11.0162 4.13603
755 1 6.08291 11.8112 3.31903
756 1 6.30521 11.0464 4.14287
757 1 7.23281 12.1417 3.18931
758 1 7.23132 11.535 4.06989
759 1 8.38712 12.1998 3.3276
760 1 8.32038 11.5945 4.00708
761 1 4.85649 12.829 3.14245
762 1 4.97353 12.241 3.92697
763 1 6.15777 12.9688 3.25093
764 1 6.19312 12.3369 4.05131
765 1 7.30057 13.1587 3.26039
766 1 7.28721 12.6634 4.08292
767 1 8.35438 13.3404 3.20079
768 1 8.44675 12.8121 4.00855
769 1 9.0089 9.26844 1.7357
770 1 9.48967 10.0086 12.897
771 1 8.83987 9.93973 2.42481
772 1 9.60737 9.39463 0.790748
773 1 10.0741 9.17922 1.62426
774 1 10.7206 9.73993 0.0243656
775 1 10.0506 9.79016 2.39218
776 1 10.6163 9.10037 0.793785
777 1 11.1261 8.98872 1.59613
778 1 11.8287 9.54533 12.8727
779 1 11.2926 9.58067 2.52455
780 1 11.7849 8.90982 0.826145
781 1 12.1967 8.84889 1.73666
782 1 12.9199 9.33341 0.107237
783 1 12.3074 9.56555 2.40133
784 1 12.7668 8.65997 0.924708
785 1 9.00654 10.4034 1.61092
786 1 9.66332 11.0111 0.097934
787 1 8.95983 10.9767 2.48546
788 1 9.45565 10.4403 0.859098
789 1 10.073 10.3646 1.566
790 1 10.7434 10.9388 0.0307628
791 1 10.1056 10.8829 2.47096
792 1 10.6418 10.3084 0.741514
793 1 11.0934 10.1005 1.73015
794 1 11.8026 10.6219 0.0459768
795 1 11.2606 10.8004 2.4293
796 1 11.7091 9.95031 0.901087
797 1 12.2119 10.0958 1.65619
798 1 12.7817 10.4293 0.0012304
799 1 12.348 10.7003 2.41832
800 1 12.8009 9.81292 0.862879
801 1 8.87231 11.5616 1.65979
802 1 9.53848 12.1639 12.8755
803 1 8.97172 12.1913 2.42281
804 1 9.52623 11.6597 0.779526
805 1 9.95332 11.4434 1.75557
806 1 10.6459 12.0532 0.0420401
807 1 10.2072 12.0542 2.39647
808 1 10.607 11.4229 0.912089
809 1 11.0577 11.1499 1.60969
810 1 11.6755 11.6813 0.0215589
811 1 11.1493 11.8345 2.36014
812 1 11.7795 11.1626 0.825787
813 1 12.329 11.1122 1.53633
814 1 12.9243 11.5933 0.0250191
815 1 12.3245 11.657 2.43311
816 1 12.9648 10.9469 0.753027
817 1 8.946 12.6559 1.50549
818 1 9.41958 13.3227 0.0292372
819 1 8.95824 13.2028 2.32913
820 1 9.53585 12.7926 0.712987
821 1 10.0376 12.6059 1.61339
822 1 10.4894 13.0343 12.8939
823 1 9.95778 13.1621 2.34236
824 1 10.7259 12.3858 0.915693
825 1 11.2873 12.3984 1.62829
826 1 11.6574 12.8184 12.9405
827 1 11.1172 13.0404 2.53253
828 1 11.882 12.2553 0.753813
829 1 12.2197 12.2038 1.61171
830 1 12.9551 12.6988 12.9145
831 1 12.2951 12.8279 2.40017
832 1 12.9258 12.1589 0.799967
833 1 9.45304 9.71916 3.13095
834 1 10.175 9.34073 4.85798
835 1 10.5702 9.77811 3.19527
836 1 10.7365 9.23481 3.94979
837 1 11.9084 9.5845 3.26194
838 1 11.7307 8.99263 4.01552
839 1 12.903 9.42361 3.22107
840 1 12.8053 8.75815 4.00126
841 1 9.47694 10.9085 3.18078
842 1 9.4899 10.2808 3.95985
843 1 10.648 10.7478 3.2691
844 1 10.6019 10.3071 4.13689
845 1 11.7395 10.6946 3.33642
846 1 11.7083 10.1355 3.98963
847 1 12.8586 10.4514 3.13455
848 1 12.8992 9.85878 4.16964
849 1 9.50316 12.053 3.29289
850 1 9.45393 11.4823 4.02862
851 1 10.589 11.9252 3.38069
852 1 10.6856 11.3863 4.08904
853 1 11.6677 11.7615 3.18281
854 1 11.8112 11.2632 4.06629
855 1 12.9008 11.6968 3.23112
856 1 12.8481 10.8718 3.89276
857 1 9.45223 13.245 3.26545
858 1 9.51223 12.6057 4.10957
859 1 10.4433 13.0428 3.20938
860 1 10.6257 12.632 4.09323
861 1 11.7417 12.854 3.20234
862 1 11.7381 12.3278 4.07145
863 1 12.8719 12.7823 3.18552
864 1 12.8266 12.1701 4.04009
865 1 0.014903 13.3154 4.88884
866 1 13.4016 0.312755 5.67099
867 1 1.12334 13.006 4.92741
868 1 1.0275 0.198382 5.66816
869 1 2.20028 13.1923 4.90525
870 1 1.96921 0.304284 5.66796
871 1 3.36067 13.0698 4.79973
872 1 3.31858 0.255665 5.65611
873 1 13.2533 0.92772 4.71936
874 1 0.0339699 1.32639 5.69353
875 1 1.05127 0.775895 4.7768
876 1 1.1726 1.25213 5.73587
877 1 2.26231 0.775527 4.83506
878 1 2.17146 1.43965 5.64105
879 1 3.38401 0.790098 4.8924
880 1 3.15369 1.433 5.63938
881 1 13.3809 1.94977 4.95187
882 1 13.4163 2.55698 5.64628
883 1 0.98794 1.87077 4.9172
884 1 1.16161 2.35817 5.71311
885 1 2.37572 1.859 4.79142
886 1 2.23088 2.48721 5.69103
887 1 3.49767 1.947 4.86287
888 1 3.35146 2.5279 5.5816
889 1 0.0452285 3.09454 4.80723
890 1 13.3679 3.65125 5.65433
891 1 1.11109 3.00059 4.89825
892 1 1.10227 3.65405 5.65445
893 1 2.18545 3.00644 4.82244
894 1 2.2795 3.63162 5.74496
895 1 3.4017 3.07709 4.86139
896 1 3.4009 3.73357 5.69444
897 1 0.0359968 13.1897 8.15801
898 1 0.460566 0.229225 6.53289
899 1 0.559394 13.1223 7.39169
900 1 1.22107 13.0531 8.03849
901 1 1.57137 0.115003 6.48548
902 1 1.63733 12.9548 7.29919
903 1 2.24682 13.2227 8.0944
904 1 2.62557 0.255702 6.33886
905 1 2.72353 13.1142 7.1899
906 1 3.23859 13.199 8.01683
907 1 3.86785 0.466054 6.37944
908 1 3.78368 13.2454 7.15857
909 1 13.4317 0.958177 8.16271
910 1 0.582857 1.33338 6.50764
911 1 0.479191 0.764535 7.34575
912 1 1.1534 0.797114 8.04596
913 1 1.70675 1.32044 6.59425
914 1 1.69299 0.726192 7.36732
915 1 2.31828 0.906686 8.01221
916 1 2.75693 1.39483 6.51219
917 1 2.91102 0.85135 7.26344
918 1 3.4059 0.806065 8.08443
919 1 3.76742 1.51287 6.25939
920 1 3.92245 1.01167 7.20322
921 1 13.3138 2.0018 8.18293
922 1 0.556175 2.40132 6.42191
923 1 0.525225 1.86889 7.36189
924 1 1.02083 1.83398 8.05872
925 1 1.69587 2.53634 6.53645
926 1 1.62922 1.98628 7.28295
927 1 2.22061 1.97757 8.04857
928 1 2.75735 2.47657 6.50939
929 1 2.8536 1.99468 7.35373
930 1 3.40887 1.92554 8.15941
931 1 3.84263 2.58723 6.48825
932 1 3.93996 2.15202 7.27756
933 1 0.0994855 3.05769 8.06901
934 1 0.573585 3.55296 6.44247
935 1 0.518416 2.98581 7.19872
936 1 1.13743 2.91013 8.10487
937 1 1.63718 3.53047 6.40675
938 1 1.59737 3.08696 7.37043
939 1 2.24512 2.9381 8.18495
940 1 2.85708 3.59403 6.43249
941 1 2.78022 3.14204 7.24111
942 1 3.3374 3.01722 8.01557
943 1 3.97773 3.67948 6.51799
944 1 3.98955 3.31979 7.41589
945 1 4.4579 13.3042 4.81282
946 1 4.50682 0.38666 5.68884
947 1 5.59155 0.00017655 4.81922
948 1 5.63938 0.46533 5.67295
949 1 6.67094 0.282229 4.70202
950 1 6.58529 0.701552 5.6232
951 1 7.84241 0.368722 4.92697
952 1 7.769 0.873788 5.72147
953 1 4.39187 0.88569 4.88591
954 1 4.56622 1.54082 5.63359
955 1 5.65685 1.10907 4.75495
956 1 5.74034 1.65445 5.54576
957 1 6.93112 1.3719 4.88906
958 1 6.75439 1.87141 5.63211
959 1 7.95249 1.40642 4.75708
960 1 7.90489 1.98288 5.66996
961 1 4.52973 2.07048 4.87423
962 1 4.36885 2.72234 5.67987
963 1 5.58695 2.25061 4.71757
964 1 5.41803 2.63638 5.71216
965 1 6.76442 2.47941 4.86977
966 1 6.63729 3.07066 5.62494
967 1 7.76248 2.39628 4.82281
968 1 7.82335 3.05172 5.63295
969 1 4.5686 3.20386 4.82898
970 1 4.48815 3.81006 5.66843
971 1 5.56251 3.31117 4.95816
972 1 5.53921 4.00357 5.56913
973 1 6.67343 3.6114 4.7948
974 1 6.82117 4.22411 5.54519
975 1 7.82877 4.17534 5.62723
976 1 8.46357 4.27951 6.47784
977 1 4.23901 13.321 8.11484
978 1 5.0709 0.722608 6.33635
979 1 4.81964 13.4078 7.41745
980 1 5.62476 0.17958 8.00261
981 1 6.07673 0.750663 6.54805
982 1 6.063 0.118114 7.10981
983 1 6.70331 0.136838 8.05254
984 1 7.1893 0.840908 6.417
985 1 7.14856 0.346683 7.31358
986 1 7.84157 0.326842 8.04118
987 1 8.33982 0.887838 6.53829
988 1 8.38055 0.425392 7.33084
989 1 4.41813 1.05553 8.07702
990 1 5.03745 1.76117 6.56372
991 1 4.88356 1.00565 7.2346
992 1 5.61827 1.2247 7.88647
993 1 6.16752 1.91316 6.45209