data.lammps (converted from cfg to data.lammps)
    
2298  atoms
1  atom types
0.0   13.4375  xlo xhi
0.0   13.4375  ylo yhi
0.0   12.952  zlo zhi
0.0  0.0 0.0 xy xz yz
    
    
    
Atoms
  
1 1 13.4235 13.1093 1.84879
2 1 0.553133 0.246086 12.9278
3 1 13.3969 1.32914 2.40206
4 1 1.06059 13.133 1.61923
5 1 1.73905 13.1979 0.737826
6 1 1.16235 13.3293 11.4162
7 1 1.28116 0.337859 2.4958
8 1 2.8276 1.07427 0.94129
9 1 2.23114 13.4116 1.62237
10 1 2.76874 13.3731 0.923322
11 1 2.2416 0.49568 2.58444
12 1 2.93092 0.570754 0.0894461
13 1 3.40696 12.8048 2.44488
14 1 3.99862 0.864816 12.8265
15 1 3.38249 1.77042 2.5
16 1 3.3418 13.4203 1.73549
17 1 12.8074 0.790087 0.756487
18 1 1.13691 2.05513 11.1789
19 1 13.3507 0.831538 1.6492
20 1 0.545803 0.826171 0.876775
21 1 1.75023 1.08455 0.833018
22 1 0.738467 2.44237 12.828
23 1 1.15858 1.9748 1.5725
24 1 1.54121 1.45968 12.9235
25 1 2.25003 1.09235 1.66879
26 1 2.21351 1.55159 12.2415
27 1 2.2233 1.58592 2.45878
28 1 2.80386 2.71385 3.27671
29 1 3.46022 0.526687 2.35524
30 1 3.87144 1.24205 0.898962
31 1 4.93434 1.99242 3.33649
32 1 5.64487 0.460917 1.69106
33 1 12.909 2.45316 0.0949819
34 1 0.42928 1.93206 0.784933
35 1 13.4336 2.4302 2.4157
36 1 12.8698 1.92578 0.788674
37 1 2.29128 2.19179 1.67682
38 1 1.74718 2.53825 12.8941
39 1 1.21475 2.60326 2.34023
40 1 2.76196 2.26001 0.795509
41 1 3.36286 1.23674 1.78415
42 1 2.76596 2.86821 12.9483
43 1 2.21443 2.73312 2.3815
44 1 3.35662 2.37123 1.64417
45 1 2.6318 1.61066 3.25109
46 1 3.93369 2.33804 0.724456
47 1 2.86263 2.04865 4.12603
48 1 3.90666 1.87511 12.8543
49 1 0.0532626 3.02005 1.56004
50 1 1.17594 3.13223 1.62044
51 1 13.3829 3.56948 2.28817
52 1 1.1097 3.72002 2.48489
53 1 0.616518 1.35488 0.048574
54 1 1.72208 3.66689 12.9388
55 1 1.61445 3.68104 3.26644
56 1 1.75982 3.19677 0.76086
57 1 2.37633 3.38519 1.5967
58 1 2.8727 3.96115 12.8495
59 1 2.33931 3.72869 2.50876
60 1 2.80701 3.38178 0.833848
61 1 3.5111 3.48703 1.5885
62 1 4.38276 4.1667 12.1323
63 1 2.81771 3.8697 3.32869
64 1 4.0687 3.61256 0.754185
65 1 0.152916 0.320009 2.45591
66 1 0.514183 0.162262 3.29733
67 1 1.59916 0.353046 3.30027
68 1 1.64523 13.2726 4.06976
69 1 2.89209 0.563456 3.20746
70 1 2.76224 13.3426 4.18203
71 1 3.93016 1.7539 3.22177
72 1 3.94267 0.701541 3.27379
73 1 0.632991 1.26846 3.20324
74 1 0.550069 0.778121 4.11375
75 1 1.22008 0.770088 1.54225
76 1 1.78451 0.973976 3.95966
77 1 1.08544 1.44153 2.30369
78 1 2.30784 2.14781 4.91378
79 1 4.4489 2.39769 4.92894
80 1 4.49119 1.89708 2.34429
81 1 0.661638 2.41667 3.1209
82 1 0.55232 1.91947 3.96832
83 1 1.75834 2.61691 3.32697
84 1 1.05245 1.97693 4.77823
85 1 1.68305 1.56357 3.27697
86 1 3.94721 2.36366 4.02104
87 1 3.31252 2.86231 2.46018
88 1 4.44518 3.00762 5.6347
89 1 0.471526 3.5832 3.1922
90 1 0.54784 3.00307 3.94487
91 1 1.63772 3.17958 4.06254
92 1 0.987398 3.14339 4.79563
93 1 2.85646 4.50491 4.01683
94 1 2.93182 3.27144 4.09691
95 1 3.916 3.94494 3.33892
96 1 3.97387 2.87718 3.14396
97 1 4.63265 0.217499 1.51658
98 1 5.22658 0.378704 0.815563
99 1 4.54794 1.3374 1.60461
100 1 5.50747 1.5075 1.67754
101 1 5.54771 0.995118 2.56498
102 1 6.12714 0.958317 12.8321
103 1 5.10672 13.1287 3.36506
104 1 6.67692 0.416561 1.7683
105 1 6.57143 1.47991 1.50388
106 1 7.25875 0.973218 12.9421
107 1 6.71571 1.08773 2.43999
108 1 7.7999 0.806001 2.50051
109 1 7.16572 0.318054 0.783551
110 1 7.83576 1.44769 11.3209
111 1 7.22293 1.01236 3.3042
112 1 7.78547 0.292259 1.51406
113 1 5.03435 0.888528 0.0973235
114 1 4.5 1.91939 12.1386
115 1 3.9574 1.24024 4.15409
116 1 4.92984 1.54225 0.697505
117 1 6.16169 2.03456 12.9248
118 1 5.99114 2.67699 0.833451
119 1 5.50166 2.17358 2.51973
120 1 5.03828 2.07351 12.8312
121 1 6.07229 1.6485 0.853818
122 1 6.70879 2.09327 12.091
123 1 6.53885 2.08155 2.41996
124 1 7.27573 1.44671 0.885606
125 1 7.79712 1.31002 1.6072
126 1 8.43155 1.89016 0.0528671
127 1 7.69129 1.90309 2.45617
128 1 7.89901 1.9341 12.1289
129 1 4.42434 2.59365 1.61195
130 1 5.10023 3.16274 0.00829015
131 1 4.54163 3.06493 2.53467
132 1 5.00369 2.56038 0.874305
133 1 5.57967 2.61443 1.65411
134 1 6.11602 3.06444 12.8891
135 1 5.13674 3.10414 3.3835
136 1 6.7234 2.63183 1.61302
137 1 7.90489 3.13328 2.34377
138 1 7.79449 3.0854 12.1387
139 1 6.75972 3.18341 2.5492
140 1 7.21961 1.93582 12.8989
141 1 7.15386 2.54424 0.713097
142 1 8.32742 2.91689 12.9175
143 1 7.81733 3.60039 1.55826
144 1 7.76286 2.43791 1.64962
145 1 4.51276 3.52667 1.71975
146 1 5.02372 4.29376 12.9092
147 1 4.51087 4.64232 1.54327
148 1 4.98699 3.72948 0.849298
149 1 5.58123 3.81606 1.72303
150 1 6.19887 4.27881 0.14459
151 1 5.68916 4.26321 2.45295
152 1 6.11682 3.75249 0.857709
153 1 7.35401 4.27847 0.0721582
154 1 6.66508 4.36923 12.1994
155 1 6.8023 3.66305 1.71865
156 1 7.19209 3.67157 0.890633
157 1 7.79492 4.21193 2.45585
158 1 8.46739 4.09797 0.0132173
159 1 8.45748 4.09121 3.17227
160 1 8.31357 3.5341 0.739698
161 1 5.06313 0.953428 3.31847
162 1 4.49267 13.2271 2.48927
163 1 6.11006 0.933534 3.24328
164 1 6.25251 0.490415 4.05223
165 1 7.29408 1.61673 4.12898
166 1 7.21399 0.406597 4.07136
167 1 8.19002 0.771526 3.35158
168 1 8.43018 0.100658 3.94197
169 1 5.07779 1.48611 4.24823
170 1 4.41828 1.3613 5.01422
171 1 6.2002 2.0359 3.31303
172 1 6.22492 2.62201 3.94159
173 1 7.21181 2.17932 3.39169
174 1 6.72843 1.60213 4.8388
175 1 8.24442 1.86977 3.08339
176 1 8.3994 1.48026 3.99288
177 1 5.06626 3.69479 4.14366
178 1 5.04661 2.53989 4.17997
179 1 5.65387 3.13156 2.38611
180 1 6.06455 3.35561 3.36455
181 1 7.33741 3.16601 3.20723
182 1 7.22018 2.75674 4.27393
183 1 8.49417 3.08958 3.40586
184 1 8.39403 2.4852 3.96608
185 1 5.04515 4.18441 3.18858
186 1 4.44288 3.7036 4.90619
187 1 6.74838 4.23472 2.53131
188 1 6.25405 3.79843 4.11091
189 1 7.44454 4.273 3.27739
190 1 7.25401 3.70746 4.0359
191 1 8.48942 5.30963 3.24654
192 1 7.70896 3.79476 4.86585
193 1 8.47781 0.113478 0.939388
194 1 8.95119 0.611448 12.2711
195 1 8.73137 0.732251 2.49015
196 1 9.5036 13.3724 0.780994
197 1 10.1692 0.029392 1.68754
198 1 10.5942 0.447023 0.0256477
199 1 9.98373 0.513495 2.66607
200 1 10.5502 13.2048 0.830081
201 1 11.3002 13.2735 1.63193
202 1 11.1879 0.42348 12.2618
203 1 11.0411 0.325815 2.4142
204 1 11.7628 13.0998 0.852025
205 1 12.4433 13.1693 1.49763
206 1 11.7799 0.306929 0.0479939
207 1 12.3519 0.229928 2.45363
208 1 13.1194 13.1174 0.778894
209 1 8.43383 1.25264 0.772701
210 1 10.0059 2.06556 1.70991
211 1 8.9005 1.40469 1.56262
212 1 9.46232 0.673651 0.14133
213 1 9.65717 1.19804 0.786396
214 1 10.1539 2.80578 12.1173
215 1 10.0144 1.50112 2.43691
216 1 10.725 0.904406 0.824167
217 1 11.1837 0.942514 1.69454
218 1 11.6667 2.033 0.743907
219 1 11.1316 1.50019 2.44577
220 1 11.7879 0.77753 0.82032
221 1 12.2909 0.792507 1.72401
222 1 12.29 0.137144 12.215
223 1 12.3031 1.40973 2.43201
224 1 0.636886 13.271 0.845236
225 1 8.85021 2.30836 1.58479
226 1 8.89479 2.95669 12.0549
227 1 9.60655 2.78639 3.2164
228 1 9.97338 2.68039 2.25194
229 1 9.84367 0.963892 1.67851
230 1 10.1293 2.36675 11.335
231 1 10.0737 3.33736 1.64989
232 1 10.5511 2.10936 0.804026
233 1 11.1393 1.93734 1.55884
234 1 12.4777 2.50476 12.0505
235 1 11.1769 2.59105 2.23844
236 1 11.8496 2.58579 12.8007
237 1 12.2429 1.80124 1.46249
238 1 11.7105 3.59278 12.9307
239 1 12.296 2.40769 2.3711
240 1 12.8776 1.23302 0.0079405
241 1 8.91039 2.91646 2.41103
242 1 9.59236 3.86131 0.0143916
243 1 8.99786 3.54664 1.5804
244 1 9.37803 2.87118 12.8265
245 1 10.4364 3.29502 0.761886
246 1 10.7248 3.86974 12.921
247 1 10.0246 4.44452 1.46521
248 1 10.0863 3.45807 11.3585
249 1 11.2709 3.77199 2.37933
250 1 12.3122 3.56939 12.2228
251 1 11.273 4.27104 1.67116
252 1 11.6841 4.15767 0.785334
253 1 12.3509 2.94178 1.52704
254 1 13.4181 1.94059 1.6418
255 1 12.234 3.4115 2.45346
256 1 12.9949 3.18251 0.730335
257 1 9.31187 0.497892 3.28726
258 1 9.70433 0.106847 4.18304
259 1 10.6545 0.514014 3.44062
260 1 10.6561 13.3177 4.04051
261 1 11.6392 0.311488 3.12738
262 1 11.7555 13.2382 4.01411
263 1 12.9147 0.156864 3.15386
264 1 12.6927 13.1241 4.25348
265 1 8.93427 1.81764 2.54217
266 1 9.5007 1.14133 3.97106
267 1 10.647 1.70951 3.17658
268 1 10.6659 1.16297 4.06379
269 1 11.701 1.30066 3.16415
270 1 11.7729 0.959689 4.11222
271 1 12.8908 1.22309 3.24135
272 1 12.8293 0.70452 4.04197
273 1 9.58408 2.31524 4.1528
274 1 9.52584 1.77857 3.32249
275 1 10.6288 2.73132 3.0534
276 1 10.6539 2.12181 4.06328
277 1 11.7247 2.53406 3.27239
278 1 11.7187 1.92842 4.01597
279 1 12.8918 2.32872 3.15577
280 1 12.9024 1.81866 4.04373
281 1 10.0267 3.8781 2.40517
282 1 9.54736 3.80576 3.29474
283 1 12.8571 3.55969 3.15162
284 1 10.5748 3.15834 4.00937
285 1 10.5674 3.82525 3.21423
286 1 11.7972 3.01726 3.99004
287 1 11.6564 3.64393 3.22094
288 1 12.9207 2.95776 3.90546
289 1 0.0328382 4.23578 1.66622
290 1 0.556568 4.01316 0.817026
291 1 13.3877 4.69799 2.40852
292 1 0.664041 3.57667 12.8795
293 1 1.23042 4.16403 1.52268
294 1 1.70515 4.87726 12.8529
295 1 1.13328 4.69035 2.36028
296 1 1.72966 4.26857 0.639199
297 1 2.20646 4.41877 1.74685
298 1 2.89868 4.98937 12.8153
299 1 2.19765 4.85283 2.5029
300 1 2.74137 4.43674 0.814883
301 1 3.26961 4.61082 1.67449
302 1 4.00041 5.34579 0.0218639
303 1 3.35067 5.08662 2.54184
304 1 3.86385 4.16427 12.9187
305 1 0.612544 5.26444 0.74898
306 1 0.546874 5.83132 0.0374589
307 1 0.0363069 5.84629 2.42024
308 1 0.598466 4.6781 12.9308
309 1 1.1102 5.35118 1.56132
310 1 1.72339 6.04821 0.0164284
311 1 1.12149 5.8849 2.46228
312 1 1.74825 5.37624 0.763147
313 1 2.19762 5.66137 1.59202
314 1 2.84062 6.11576 0.0239822
315 1 2.22162 5.9497 2.3965
316 1 2.80055 5.4927 0.766679
317 1 3.28795 5.56904 1.60904
318 1 3.85625 6.32592 12.9323
319 1 3.38562 6.15697 2.29022
320 1 3.91553 5.6144 0.929069
321 1 13.4191 6.44727 1.61883
322 1 0.454936 6.86545 12.8009
323 1 13.3973 7.49796 1.63805
324 1 0.509784 6.53339 0.856948
325 1 1.00526 6.45743 1.69641
326 1 1.6102 7.15171 12.9391
327 1 1.24154 7.02013 2.4332
328 1 1.53799 6.53569 0.732517
329 1 2.17696 6.70819 1.43168
330 1 2.7483 7.29484 0.0556243
331 1 2.2817 7.06745 2.29524
332 1 2.85414 6.64812 0.801303
333 1 3.33912 6.73013 1.55054
334 1 3.88212 7.42814 12.9337
335 1 3.35352 7.4053 2.40923
336 1 3.98468 6.8155 0.849246
337 1 0.0283535 8.51874 1.63156
338 1 0.512639 7.94727 12.8692
339 1 0.639632 8.08235 3.33109
340 1 0.53904 7.59174 0.799659
341 1 1.07804 7.58924 1.59816
342 1 1.62867 8.2073 12.8763
343 1 1.12398 8.0853 2.3594
344 1 1.7436 7.66255 0.92763
345 1 2.38262 7.90275 1.68467
346 1 2.70243 8.54934 0.12691
347 1 2.23475 8.31474 2.44556
348 1 2.93522 7.84989 0.775985
349 1 3.36527 7.83197 1.66115
350 1 3.9135 8.60933 12.8099
351 1 2.75965 9.50331 3.25002
352 1 3.91422 8.01134 0.789781
353 1 0.436914 4.71831 3.17415
354 1 0.629427 4.15268 3.95423
355 1 1.58302 5.03597 3.23712
356 1 1.67673 4.3912 3.92593
357 1 2.72881 5.0445 3.2527
358 1 3.44183 4.56462 4.82625
359 1 3.3758 4.07155 2.54112
360 1 3.91331 5.2618 3.31961
361 1 0.484955 5.82221 3.29467
362 1 0.572165 5.20334 4.00895
363 1 1.60954 6.1071 3.2408
364 1 1.70594 5.49207 4.08782
365 1 2.68868 6.17359 3.15678
366 1 2.72503 5.63929 4.03926
367 1 3.74164 6.40402 3.16143
368 1 3.89313 5.82303 4.11381
369 1 0.604065 6.38365 4.07423
370 1 1.12806 6.51637 4.88701
371 1 1.73786 7.24367 3.2959
372 1 1.75494 6.55468 4.0789
373 1 2.78367 7.30351 3.18149
374 1 2.84737 6.72412 4.05215
375 1 5.04797 7.59356 3.30112
376 1 3.34987 6.8639 4.86772
377 1 0.487924 8.59043 4.04004
378 1 0.708963 6.91666 3.23305
379 1 1.63628 8.2135 3.12898
380 1 1.73584 7.67889 4.16057
381 1 4.00392 8.61565 3.11001
382 1 2.69058 7.74933 4.04895
383 1 3.97384 7.53115 3.29123
384 1 3.94536 8.05452 4.07294
385 1 3.78471 4.59337 0.81352
386 1 5.03388 5.45804 0.0958392
387 1 4.47193 5.27493 2.42713
388 1 5.03887 4.90598 0.787821
389 1 5.54439 5.34334 2.46014
390 1 6.17132 4.90627 0.931045
391 1 6.1175 5.52812 3.15117
392 1 5.53508 4.90961 1.64124
393 1 6.68279 4.8817 1.69691
394 1 6.73392 5.57538 12.3274
395 1 6.78156 5.43896 2.41588
396 1 7.30809 4.7979 0.899001
397 1 7.8398 4.70953 1.67244
398 1 8.39248 5.24671 12.935
399 1 7.92102 5.37075 2.41841
400 1 8.38849 4.69583 0.841903
401 1 4.43991 5.80214 1.62173
402 1 5.07376 6.53189 0.0294499
403 1 4.44643 6.46403 2.4776
404 1 5.01841 6.11249 0.860346
405 1 5.52635 5.99083 1.69711
406 1 6.19043 6.60925 0.102091
407 1 5.99998 6.66237 3.29114
408 1 6.11867 6.02212 0.855534
409 1 6.73036 5.99123 1.62694
410 1 7.2446 5.86883 0.815287
411 1 6.63182 6.49038 2.50332
412 1 7.35975 5.29583 12.8644
413 1 7.83594 5.90636 1.6294
414 1 8.39676 6.36657 12.9324
415 1 7.90194 6.54209 2.45211
416 1 8.37305 5.83986 0.907461
417 1 4.53667 7.04958 1.56587
418 1 4.95584 7.65444 12.9085
419 1 4.48468 7.48033 2.43126
420 1 5.09199 7.2666 0.727474
421 1 5.54636 6.52776 2.45693
422 1 6.09624 7.57825 12.9488
423 1 5.52995 7.08793 1.7024
424 1 6.18344 7.20277 1.02714
425 1 6.81683 7.00857 1.66028
426 1 7.2725 7.49946 12.7367
427 1 6.62259 7.56174 2.52328
428 1 7.30567 7.06567 0.769288
429 1 7.80709 7.04539 1.61939
430 1 8.38093 6.86955 0.714984
431 1 7.89352 7.53028 2.40486
432 1 8.89845 6.88341 1.58722
433 1 4.43096 8.12372 1.51132
434 1 5.06102 8.75718 12.9204
435 1 4.52807 8.5539 2.28735
436 1 5.15664 8.3081 0.858378
437 1 5.65282 7.73437 2.45312
438 1 6.14651 8.6218 0.0263616
439 1 5.59138 8.32171 1.73002
440 1 6.26489 8.2232 0.875803
441 1 6.66714 8.16798 1.70648
442 1 7.29408 8.75067 0.105892
443 1 6.81385 8.81194 2.46899
444 1 7.22924 8.03717 0.675414
445 1 7.75551 8.09165 1.60872
446 1 8.31091 7.98956 0.721987
447 1 7.81341 9.13511 1.5227
448 1 8.56905 7.48076 0.0108189
449 1 4.9961 5.46732 3.29389
450 1 4.45174 4.25454 2.45408
451 1 6.25846 5.86484 3.96292
452 1 6.21373 4.391 3.26579
453 1 7.31828 5.34868 3.20574
454 1 7.1935 4.89214 4.07149
455 1 8.38105 5.87141 4.1907
456 1 8.37997 3.63361 4.09835
457 1 5.13888 5.88149 4.16162
458 1 4.39401 5.28483 5.6313
459 1 6.29547 7.12435 4.03922
460 1 6.16426 7.7826 3.30036
461 1 7.19409 6.52564 3.17697
462 1 8.43207 6.25006 6.60092
463 1 8.37428 6.32881 3.19462
464 1 7.85369 6.55571 5.69699
465 1 5.0805 8.17571 3.98339
466 1 4.98633 6.43797 3.32734
467 1 6.33743 8.86374 3.16239
468 1 5.10608 7.05263 4.19342
469 1 6.27886 8.31046 4.02531
470 1 7.32498 7.65991 3.26526
471 1 8.52134 7.57265 3.19183
472 1 8.40298 6.95764 3.9736
473 1 5.11371 8.72477 3.22105
474 1 4.50735 7.99009 4.85657
475 1 5.64222 8.1933 4.89828
476 1 6.81295 8.34853 4.8423
477 1 7.41106 8.82361 3.23011
478 1 6.63041 9.32872 4.74182
479 1 7.90196 8.57376 2.45583
480 1 8.46272 8.06649 3.96883
481 1 9.00837 4.04101 2.41942
482 1 9.46892 5.27375 0.147591
483 1 9.52764 4.51049 0.554651
484 1 9.54003 5.02032 3.27936
485 1 11.0665 3.0469 1.55016
486 1 9.99118 4.92307 12.1586
487 1 10.1165 6.5885 1.5578
488 1 10.5518 4.97702 12.9041
489 1 10.7662 4.38849 0.811859
490 1 12.2988 4.67006 12.0901
491 1 11.1386 4.94137 2.3974
492 1 11.8904 4.78313 12.9167
493 1 12.335 4.13295 1.61441
494 1 12.9564 4.70264 12.9382
495 1 12.2414 4.7579 2.4105
496 1 12.904 4.18821 0.850728
497 1 8.96281 5.64243 1.69338
498 1 9.51741 6.27476 12.876
499 1 9.44553 6.1363 3.18435
500 1 9.07137 4.57411 1.55767
501 1 9.49132 5.75578 0.95976
502 1 10.7892 6.1732 12.9279
503 1 10.5437 6.0739 3.2564
504 1 10.1619 5.4843 1.6073
505 1 10.6114 5.49724 0.745298
506 1 11.3041 5.88537 12.0073
507 1 11.2922 5.52227 1.61291
508 1 11.6911 5.30621 0.825961
509 1 12.3759 5.24436 1.48512
510 1 12.7974 5.89068 12.8713
511 1 12.7799 5.7756 3.27104
512 1 0.0420654 5.33177 1.58483
513 1 8.96594 6.28586 2.37296
514 1 9.84879 7.2668 12.892
515 1 9.12584 7.31288 2.50252
516 1 9.52336 6.80992 0.749532
517 1 10.0453 6.13455 2.38565
518 1 10.619 7.97474 12.9255
519 1 10.1669 7.28933 2.23233
520 1 10.64 6.69518 0.658806
521 1 11.1399 6.4873 1.51944
522 1 11.6402 7.05985 0.00435318
523 1 11.1928 6.95039 2.35242
524 1 12.9453 5.30003 0.772601
525 1 12.9065 6.33664 0.831491
526 1 12.2269 6.87211 12.2113
527 1 12.3014 6.3563 1.82153
528 1 12.7924 6.94575 12.9007
529 1 8.80924 7.88377 1.62479
530 1 10.1285 8.3366 12.1146
531 1 8.52636 8.7439 3.21071
532 1 9.39874 7.92064 0.783568
533 1 10.0635 7.75193 1.43636
534 1 10.7427 7.64544 0.75162
535 1 9.98953 8.29127 2.48418
536 1 11.2326 7.56135 1.63782
537 1 11.1632 8.13599 2.44464
538 1 11.7663 7.44192 0.875309
539 1 11.6377 7.92861 3.22323
540 1 11.8948 6.41732 0.743937
541 1 12.3442 7.53863 1.60142
542 1 12.8266 8.06433 12.9269
543 1 12.8785 7.99219 3.21304
544 1 12.8495 7.50711 0.77648
545 1 8.95615 5.11395 2.45447
546 1 9.64327 3.39117 4.19078
547 1 10.1346 4.90005 2.42126
548 1 10.4931 4.34866 4.08571
549 1 11.6459 4.726 3.21558
550 1 11.7353 4.17807 3.98682
551 1 12.8423 4.61582 3.20773
552 1 12.9252 4.00294 4.05115
553 1 9.46922 6.74178 4.01325
554 1 9.63819 5.53741 4.03968
555 1 10.6191 4.85086 3.28274
556 1 10.7956 5.485 4.00731
557 1 11.1736 5.92149 2.60529
558 1 11.8376 5.24002 4.00788
559 1 12.3989 5.73026 2.36203
560 1 12.9028 5.12352 3.99124
561 1 9.51372 8.52241 3.33555
562 1 9.84208 7.21481 3.22384
563 1 10.7886 7.12208 3.26165
564 1 10.7452 6.58623 4.12809
565 1 11.7851 6.82035 3.39534
566 1 11.8018 5.83315 3.23476
567 1 12.2589 6.96806 2.4285
568 1 0.0139853 6.95477 2.52431
569 1 9.03133 8.4664 2.29395
570 1 8.97511 7.99886 4.79368
571 1 10.6099 8.21547 3.30943
572 1 10.7234 7.73084 4.07824
573 1 12.3605 8.03635 2.50198
574 1 12.2845 8.60865 4.94045
575 1 12.8164 6.85267 3.19663
576 1 12.8143 7.423 4.0428
577 1 0.0954752 7.96587 2.49107
578 1 0.062624 9.13296 12.1449
579 1 0.652632 9.27952 3.29299
580 1 0.649945 8.64475 0.76164
581 1 1.09388 8.74417 1.61014
582 1 1.74724 9.36154 12.9016
583 1 1.18502 9.16681 2.46673
584 1 1.70533 8.65241 0.868338
585 1 2.24905 8.97034 1.65777
586 1 2.77326 9.64051 0.126074
587 1 2.21145 9.54101 2.38135
588 1 2.83938 8.9938 0.881315
589 1 3.47456 8.91729 1.58535
590 1 3.75538 9.65691 12.9149
591 1 3.3655 8.49535 2.44549
592 1 3.98103 9.13461 0.769763
593 1 13.4077 9.1011 2.4284
594 1 0.572865 9.78935 0.878607
595 1 0.0813154 10.3735 2.38525
596 1 0.488403 9.21951 0.0790019
597 1 1.04989 9.79372 1.61277
598 1 1.6328 10.4473 0.166403
599 1 1.09934 10.2992 2.48922
600 1 1.71026 9.80693 0.956188
601 1 2.27876 10.119 1.56331
602 1 2.74349 10.7206 12.8324
603 1 2.89106 10.6332 3.16091
604 1 2.87603 10.2433 0.766446
605 1 3.337 10.0941 1.5845
606 1 3.97484 10.744 12.9398
607 1 3.34321 10.6787 2.37161
608 1 3.99205 10.2642 0.805936
609 1 13.3463 10.9526 1.72886
610 1 0.622811 12.0773 0.795856
611 1 13.3023 11.3987 2.57457
612 1 0.607414 10.3848 0.0554454
613 1 0.448826 10.9606 0.820806
614 1 2.78226 11.9541 0.0138209
615 1 1.14532 11.4118 2.3869
616 1 1.09036 10.8961 1.58294
617 1 2.23881 10.6485 2.46765
618 1 2.91736 12.4063 0.794941
619 1 2.30472 11.2931 1.71201
620 1 1.69628 11.1164 0.943552
621 1 3.40655 11.3661 1.72083
622 1 4.08057 11.9189 0.0566697
623 1 3.30192 11.761 2.61427
624 1 3.80031 11.311 0.847594
625 1 0.0685941 12.0099 1.64493
626 1 13.3827 12.5958 12.3029
627 1 0.0249047 12.5134 2.51993
628 1 0.619797 12.6118 0.0300334
629 1 1.07173 12.0143 1.76183
630 1 1.76375 0.415833 0.150649
631 1 1.11418 12.6891 2.45942
632 1 1.61961 12.2332 0.885908
633 1 2.34581 12.3373 1.59609
634 1 1.7185 12.6342 12.8865
635 1 2.15015 12.8416 2.43232
636 1 2.77568 13.0459 0.0247404
637 1 3.43395 12.3048 1.64775
638 1 3.95897 0.178153 0.97538
639 1 3.92048 13.0542 3.28136
640 1 3.90566 12.5071 0.757468
641 1 0.552503 9.74118 4.12872
642 1 0.4168 7.39248 3.99279
643 1 1.64134 9.34284 3.29487
644 1 1.5896 8.70387 4.05686
645 1 2.85196 8.351 3.24536
646 1 2.78007 8.87322 4.02066
647 1 3.27831 9.64264 2.43377
648 1 3.90917 9.60682 3.23759
649 1 0.624418 10.38 3.27353
650 1 13.3903 9.77965 4.87366
651 1 1.82808 10.4758 3.29621
652 1 1.6335 9.90224 4.12534
653 1 2.89804 10.0052 4.00459
654 1 4.0639 10.0933 4.14043
655 1 3.96929 10.6692 3.43098
656 1 4.3867 10.3941 5.03974
657 1 0.63103 11.4219 3.22685
658 1 0.660157 10.8779 4.09519
659 1 2.27508 11.8146 2.52208
660 1 1.67349 11.5277 3.28017
661 1 2.829 11.6719 3.32896
662 1 2.97551 11.067 4.01485
663 1 3.99884 11.746 3.40487
664 1 3.99469 11.3136 4.23135
665 1 0.375454 13.0384 4.06329
666 1 0.66686 12.5588 3.26586
667 1 1.75491 12.6458 3.39493
668 1 1.65604 12.0452 4.14426
669 1 2.80305 12.9945 3.24845
670 1 2.85703 12.3047 4.01037
671 1 3.88774 0.196948 4.10505
672 1 3.86852 12.4437 3.94574
673 1 4.52783 9.37291 1.56919
674 1 4.86978 9.83793 0.0259425
675 1 4.46977 9.69258 2.43995
676 1 5.12814 9.38201 0.723837
677 1 5.64636 9.47168 1.64986
678 1 6.24132 11.1075 0.0435036
679 1 5.62105 9.93836 2.4482
680 1 6.10963 9.31244 0.763026
681 1 6.7237 9.30762 1.59746
682 1 7.34979 10.0315 12.9115
683 1 6.78614 9.96674 2.2881
684 1 7.16919 9.50629 0.750384
685 1 8.51278 9.15251 0.838265
686 1 8.30541 9.7339 12.8501
687 1 7.99799 10.234 1.57897
688 1 8.33898 8.64555 0.0725967
689 1 4.43905 10.4138 1.60041
690 1 5.13104 11.0127 0.0732914
691 1 4.54755 10.743 2.6277
692 1 5.00372 10.4727 0.74813
693 1 5.62788 10.4901 1.5632
694 1 5.73349 10.8766 12.2602
695 1 5.51957 11.0103 2.42162
696 1 6.15276 9.90907 12.9472
697 1 6.14774 10.551 0.783981
698 1 7.24426 11.0625 0.00803969
699 1 6.775 11.1112 2.42965
700 1 6.73145 10.5768 1.65634
701 1 7.25903 10.4876 0.919835
702 1 8.38004 10.8743 12.8549
703 1 7.86848 10.7942 2.40371
704 1 8.3748 10.2514 0.711578
705 1 4.50452 11.4273 1.71698
706 1 5.07952 12.0957 0.121205
707 1 4.44228 11.9634 2.60168
708 1 4.93899 11.5748 0.943938
709 1 5.70398 11.5447 1.64721
710 1 6.14149 12.0971 0.119198
711 1 5.67161 12.7154 1.69899
712 1 6.20076 11.6312 0.93723
713 1 6.81494 11.7439 1.69314
714 1 7.31062 12.1205 0.00709169
715 1 6.76281 12.3631 2.53715
716 1 7.35068 11.4962 0.854927
717 1 7.97008 11.4394 1.73324
718 1 8.59293 11.8225 0.0358535
719 1 7.77428 12.0767 2.45697
720 1 8.36842 11.3526 0.766087
721 1 4.49308 12.5765 1.76274
722 1 5.54791 13.2088 12.306
723 1 4.48016 0.800308 2.41164
724 1 4.89633 13.2036 0.115902
725 1 5.0562 12.582 0.89561
726 1 6.31173 0.506803 0.714836
727 1 5.52588 13.3356 2.51862
728 1 6.07917 12.8146 0.843259
729 1 6.70701 12.8589 1.60583
730 1 7.42101 13.2632 0.0488595
731 1 6.74111 13.3592 2.61913
732 1 7.23815 12.6809 0.783684
733 1 7.85249 12.6023 1.61827
734 1 8.31449 13.0073 12.9387
735 1 8.02502 13.1877 2.37409
736 1 8.43673 12.4821 0.80273
737 1 5.01234 9.68196 3.18661
738 1 5.0479 9.23691 4.05422
739 1 6.24992 10.0057 3.18723
740 1 6.14622 9.43799 3.90653
741 1 7.89011 9.6099 2.27652
742 1 7.26938 9.4157 3.98413
743 1 8.46065 9.69377 3.16461
744 1 9.08118 9.02003 5.01706
745 1 5.1738 10.8478 3.35663
746 1 5.13553 10.2772 4.056
747 1 6.17918 11.1188 3.1466
748 1 6.26562 10.6354 4.01985
749 1 7.43334 10.9851 3.18665
750 1 7.43088 10.4555 3.9691
751 1 8.47529 10.709 3.36986
752 1 8.47627 10.1408 4.10189
753 1 5.59134 12.1888 2.41116
754 1 5.11622 12.0387 3.2823
755 1 6.16553 12.1233 3.2696
756 1 6.29531 11.6382 4.10849
757 1 7.26462 11.9934 3.39078
758 1 7.38463 11.593 4.0793
759 1 8.48954 11.8853 3.15494
760 1 8.54051 11.4424 3.94641
761 1 5.06067 0.404676 3.97964
762 1 5.03717 12.573 4.14929
763 1 6.13618 13.2692 3.32154
764 1 6.21421 12.6782 4.12559
765 1 7.42363 13.1622 3.18545
766 1 7.23169 12.7873 4.04091
767 1 8.45223 12.8821 3.16412
768 1 8.33603 12.5196 4.03982
769 1 9.00865 8.95677 1.62656
770 1 9.72414 9.07901 0.698534
771 1 9.06014 9.63191 2.34552
772 1 9.33968 9.6544 12.946
773 1 10.1139 8.87816 1.52041
774 1 10.0236 9.41012 12.2967
775 1 10.2045 9.40176 2.3643
776 1 10.7521 8.65828 0.583784
777 1 11.16 8.61715 1.46306
778 1 11.7707 9.28155 0.0312691
779 1 11.1655 9.16166 2.42657
780 1 11.9125 8.58787 0.828651
781 1 12.3092 8.73369 1.77362
782 1 12.9235 9.08563 0.0351063
783 1 12.2172 9.22294 2.56187
784 1 12.9495 8.63123 0.857741
785 1 8.92633 10.1683 1.6291
786 1 9.53263 10.789 0.0382984
787 1 8.90593 10.7576 2.44722
788 1 9.6069 10.1169 0.740338
789 1 10.0458 9.87289 1.54537
790 1 11.2881 9.69087 1.56688
791 1 10.0503 10.5353 2.36866
792 1 10.6711 9.47368 12.8757
793 1 11.8624 9.72473 0.804401
794 1 11.7784 10.3265 12.8565
795 1 11.8425 10.2553 3.25271
796 1 12.921 9.72089 0.79534
797 1 12.4375 9.80564 1.69437
798 1 12.9987 10.1797 0.0208917
799 1 12.3941 10.3012 2.40094
800 1 13.3878 9.65979 1.69696
801 1 9.10561 11.2172 1.52787
802 1 9.54635 11.7907 12.8093
803 1 9.07926 11.7905 2.44209
804 1 9.56434 11.2013 0.902528
805 1 10.2407 10.9845 1.63553
806 1 10.6081 11.6742 12.9097
807 1 10.0763 11.6892 2.30377
808 1 10.7557 9.97288 0.820837
809 1 10.7103 11.0604 0.816515
810 1 11.8216 10.8748 0.610252
811 1 11.2142 11.4537 2.45879
812 1 11.2568 10.8431 1.66706
813 1 12.139 10.9859 1.57885
814 1 12.8743 11.2938 0.0206665
815 1 12.3618 11.392 2.41078
816 1 12.8738 10.7509 0.894042
817 1 8.88513 12.3353 1.6377
818 1 9.51839 12.885 12.9481
819 1 9.0899 0.282593 1.61089
820 1 9.60073 12.2462 0.835877
821 1 10.0002 12.3076 1.68657
822 1 10.6833 12.8189 12.8894
823 1 10.1781 12.9091 2.51666
824 1 10.6584 12.1601 0.763333
825 1 11.1018 12.1287 1.62355
826 1 0.154973 11.9804 11.4028
827 1 11.4104 12.6408 2.37261
828 1 11.6276 11.9116 0.89676
829 1 12.352 12.0145 1.52084
830 1 11.7175 12.6196 0.0596173
831 1 12.3099 12.5294 2.3737
832 1 12.8693 11.8993 0.821984
833 1 9.6083 9.65514 3.191
834 1 10.1614 8.93426 4.80575
835 1 10.6153 9.36349 3.23928
836 1 10.7401 8.81116 3.94715
837 1 11.2041 10.2113 2.35131
838 1 11.8408 8.53096 4.04465
839 1 12.9632 9.20177 3.18522
840 1 12.8215 8.57298 4.00276
841 1 9.69517 10.6875 3.17149
842 1 9.57208 10.1287 4.06432
843 1 10.7754 10.4366 3.17305
844 1 10.6087 9.95157 4.15025
845 1 11.8311 9.73034 4.01976
846 1 11.713 9.15199 3.35093
847 1 13.0135 10.2809 3.21497
848 1 12.9148 9.54456 4.08233
849 1 9.61953 11.8319 3.26554
850 1 9.50229 11.1826 4.03496
851 1 10.6736 11.6021 3.14403
852 1 10.5979 10.9868 4.00951
853 1 11.8278 11.2968 3.19528
854 1 11.7776 10.8732 4.00046
855 1 12.9349 11.525 3.44969
856 1 12.9428 10.7658 3.92571
857 1 9.0116 13.0779 2.25128
858 1 9.48864 12.8782 3.17415
859 1 10.6851 12.6588 3.21018
860 1 10.6589 12.054 4.05666
861 1 11.802 12.6551 3.36011
862 1 11.7981 11.9498 3.86603
863 1 12.8459 12.5895 3.38523
864 1 12.908 11.9575 4.16324
865 1 0.00498334 13.0364 4.96603
866 1 13.4092 0.264927 5.61042
867 1 1.07664 13.1059 4.79023
868 1 1.04385 0.296347 5.64227
869 1 2.27803 12.6649 5.68931
870 1 2.17541 13.2235 4.91023
871 1 3.33804 13.42 4.8252
872 1 2.87687 0.639691 6.39857
873 1 13.3997 0.788611 4.72559
874 1 0.01532 1.31128 5.62338
875 1 1.13752 0.802002 4.93149
876 1 0.601801 1.34528 6.56936
877 1 2.19816 0.878502 4.92974
878 1 1.6785 1.51348 6.39988
879 1 2.85911 0.986393 4.06767
880 1 3.33895 1.72728 5.66772
881 1 13.393 1.93818 4.98455
882 1 0.066057 2.60994 5.6794
883 1 1.02991 1.49527 5.67738
884 1 2.25466 2.77363 5.61622
885 1 2.11501 1.53616 5.60986
886 1 1.70901 1.99289 4.23352
887 1 2.75415 2.59427 6.66072
888 1 3.23644 2.92362 5.82844
889 1 13.3045 3.00694 4.76899
890 1 0.0698298 3.63795 5.55702
891 1 1.22988 2.49294 5.56545
892 1 1.14319 3.56744 5.67603
893 1 2.20896 3.29525 4.8169
894 1 2.20508 3.83555 5.6769
895 1 3.39599 3.50848 4.89874
896 1 3.35512 4.01539 5.68713
897 1 0.047389 13.0474 8.07255
898 1 0.596982 0.217306 6.49367
899 1 0.456442 12.4876 6.42696
900 1 0.608583 13.0785 7.22187
901 1 1.80531 13.4122 7.19324
902 1 1.69041 0.453962 6.42888
903 1 2.269 13.3804 8.11944
904 1 2.86786 0.12593 7.34697
905 1 3.36478 0.23982 8.08027
906 1 3.42711 0.671188 8.98527
907 1 3.40752 0.570453 5.58321
908 1 3.91796 0.739986 6.40488
909 1 0.0577932 0.779484 8.03236
910 1 0.594795 1.95287 7.21052
911 1 0.671358 0.744278 7.34652
912 1 2.3097 0.437268 8.98589
913 1 1.76782 1.05066 7.32003
914 1 1.86455 0.225774 9.85217
915 1 2.72187 1.30045 7.19816
916 1 2.74327 1.70322 6.40599
917 1 2.25393 0.258394 5.7478
918 1 2.97407 0.574226 9.74537
919 1 3.88535 2.88416 6.52048
920 1 3.44133 1.30037 8.01926
921 1 0.0777951 1.82274 8.02532
922 1 1.25002 1.97389 8.02536
923 1 1.21374 2.49329 8.89787
924 1 1.26613 0.889674 8.18754
925 1 1.53851 3.22543 7.45171
926 1 1.75853 2.18152 7.26651
927 1 2.31869 2.18091 8.06597
928 1 1.7116 2.61826 6.46805
929 1 3.14627 2.36734 7.68587
930 1 2.96302 1.7782 9.64657
931 1 3.3164 2.75474 8.89561
932 1 3.92441 2.23776 7.31311
933 1 0.0351231 2.99921 8.09991
934 1 0.517111 3.72453 6.39023
935 1 0.636329 2.58916 6.40335
936 1 0.576375 3.03151 7.1831
937 1 1.72469 3.69238 6.47652
938 1 2.2774 3.36697 8.01266
939 1 2.77791 3.37352 7.32869
940 1 2.74922 3.74666 6.47641
941 1 3.40396 3.33051 8.18946
942 1 3.34629 4.05052 8.78419
943 1 4.53982 4.19387 5.73559
944 1 3.88144 1.73338 6.45665
945 1 4.55577 0.179991 4.81602
946 1 4.52048 0.642962 5.59472
947 1 5.73099 0.381728 4.79379
948 1 5.57269 0.839275 5.67374
949 1 6.74751 0.285927 4.99831
950 1 6.67097 1.03483 5.67195
951 1 7.82694 0.399521 4.72681
952 1 8.36431 0.835494 6.38032
953 1 3.3282 1.24709 4.92298
954 1 4.00932 3.43325 4.0909
955 1 5.69574 1.49537 5.12916
956 1 5.57674 2.16009 5.78396
957 1 6.08418 1.45452 4.20329
958 1 6.65261 3.25755 5.80224
959 1 7.84379 1.40267 4.85226
960 1 7.79053 1.98456 5.62495
961 1 4.6254 1.85877 5.75185
962 1 5.07696 3.61932 7.23933
963 1 5.68394 2.62287 4.85967
964 1 4.94469 3.00956 6.48553
965 1 6.67494 2.65385 5.00504
966 1 6.68283 4.46371 5.80814
967 1 7.87889 2.59747 4.88467
968 1 7.75095 3.08533 5.79068
969 1 5.56006 3.6892 4.84064
970 1 3.88252 4.52329 7.24566
971 1 5.07611 4.76605 3.96015
972 1 5.63183 4.84871 4.94133
973 1 6.6721 3.76939 5.01577
974 1 6.74196 4.90473 4.91938
975 1 7.74548 4.17725 5.63817
976 1 8.40037 4.18506 6.34614
977 1 4.49424 0.392203 8.15103
978 1 5.04929 0.781819 6.55033
979 1 5.09041 0.188613 7.25141
980 1 5.6244 0.253683 8.08407
981 1 6.10239 0.913079 6.51141
982 1 6.26049 0.3574 7.32323
983 1 6.82648 13.38 9.0661
984 1 7.76843 0.819886 5.68529
985 1 6.73576 0.444983 8.1538
986 1 7.87518 0.219285 8.14383
987 1 8.42457 0.298638 7.11124
988 1 8.5205 13.1178 6.49064
989 1 3.89146 1.20346 7.27498
990 1 5.08404 1.71393 6.68578
991 1 4.93094 1.23282 7.54062
992 1 5.5828 1.42372 8.10366
993 1 6.19337 2.05097 6.47257