data.lammps (converted from cfg to data.lammps)
    
2298  atoms
1  atom types
0.0   13.4375  xlo xhi
0.0   13.4375  ylo yhi
0.0   12.952  zlo zhi
0.0  0.0 0.0 xy xz yz
    
    
    
Atoms
  
1 1 13.4137 0.225857 1.59978
2 1 0.612436 0.721725 0.0942665
3 1 13.2495 0.668658 2.51446
4 1 0.53218 0.0673109 0.753169
5 1 1.03004 0.188298 1.7102
6 1 1.64662 0.618482 0.125357
7 1 1.08681 0.568605 2.67039
8 1 1.61191 13.3921 0.821728
9 1 2.09943 13.3809 1.68263
10 1 2.65232 0.461296 0.0858641
11 1 2.20955 0.411525 2.43645
12 1 2.67662 13.2931 0.78589
13 1 3.28195 13.2212 1.57123
14 1 3.87966 0.125882 0.0809158
15 1 3.17285 0.283221 2.37765
16 1 3.88002 13.0622 0.763311
17 1 0.00853158 1.26214 1.60247
18 1 0.548895 1.91772 12.9088
19 1 13.4019 1.69006 2.55052
20 1 0.515609 1.3205 0.703358
21 1 1.07936 1.13771 1.58113
22 1 1.70574 1.69532 12.836
23 1 1.12141 1.65101 2.40894
24 1 1.72697 1.21605 0.905913
25 1 2.28464 1.02171 1.70729
26 1 2.76872 1.56723 0.0768407
27 1 2.16498 1.54792 2.50195
28 1 2.79448 1.03898 0.847499
29 1 3.42897 0.838942 1.51927
30 1 3.83532 1.45633 12.8879
31 1 3.34412 1.45474 2.35435
32 1 3.91456 0.841362 0.637475
33 1 13.3303 2.3299 1.70904
34 1 0.642157 3.01301 0.00270337
35 1 0.0240373 2.9908 2.38126
36 1 0.490345 2.3992 0.898669
37 1 1.00578 2.29736 1.64019
38 1 1.6921 2.68595 0.00546086
39 1 1.11086 2.88552 2.42333
40 1 1.62934 2.18294 0.859249
41 1 2.11563 2.27969 1.73053
42 1 2.78158 2.57652 12.9276
43 1 2.22391 2.80156 2.49954
44 1 2.75893 2.15437 0.879691
45 1 3.28664 1.93301 1.57121
46 1 3.95002 2.45898 12.9254
47 1 3.36929 2.58431 2.39545
48 1 3.8825 1.98207 0.867855
49 1 13.3314 3.60918 1.61615
50 1 0.565902 3.97669 0.176409
51 1 13.2732 4.11943 2.50502
52 1 0.449161 3.46354 0.95506
53 1 1.08959 3.45024 1.63304
54 1 1.76088 3.86268 0.0411056
55 1 1.07839 3.98419 2.44848
56 1 1.70009 3.28955 0.831029
57 1 2.30047 3.32527 1.60918
58 1 2.7764 3.71519 0.0270999
59 1 2.29401 3.89713 2.37371
60 1 2.86281 3.19 0.864533
61 1 3.38817 3.06414 1.63989
62 1 3.88911 3.52057 12.9359
63 1 3.30865 3.69131 2.50301
64 1 3.8465 2.98073 0.779988
65 1 0.439742 0.760889 3.17693
66 1 0.491728 0.128226 4.06821
67 1 1.799 0.531472 3.31199
68 1 1.57559 13.2358 4.02897
69 1 2.88531 0.447861 3.3309
70 1 2.63773 13.124 4.0439
71 1 3.85799 0.169678 3.14532
72 1 3.82015 13.1146 3.91679
73 1 0.555399 1.91576 3.11954
74 1 0.700239 1.28005 4.01357
75 1 1.66245 1.6546 3.23077
76 1 1.65753 1.11675 4.06703
77 1 2.8382 1.55888 3.1876
78 1 2.70606 0.920356 4.08158
79 1 4.06874 1.2813 3.22343
80 1 3.71869 0.739486 4.05478
81 1 0.427181 2.86543 3.36907
82 1 0.605643 2.33369 4.15259
83 1 1.58984 2.78647 3.23265
84 1 1.83497 2.28666 3.99047
85 1 2.89928 2.67133 3.19896
86 1 2.75626 1.90503 3.9878
87 1 3.99528 2.45166 3.19357
88 1 3.87285 1.8241 3.96327
89 1 0.506924 3.99994 3.14405
90 1 0.73088 3.50364 4.06403
91 1 1.67265 3.79517 3.12129
92 1 1.75334 3.27144 4.15645
93 1 2.67753 3.8229 3.30996
94 1 2.814 3.10525 3.96845
95 1 3.86761 3.5964 3.11262
96 1 3.95702 2.98906 3.97656
97 1 4.3863 13.1778 1.548
98 1 5.15245 0.208566 12.88
99 1 4.40488 0.213353 2.42607
100 1 5.01719 13.0603 0.76273
101 1 5.58636 13.0696 1.56496
102 1 6.23469 0.176625 0.0200007
103 1 5.60264 0.30532 2.3439
104 1 6.17183 12.9872 0.738391
105 1 6.68884 13.3204 1.5648
106 1 7.22895 0.394983 0.0377078
107 1 6.58636 0.428478 2.38476
108 1 7.2228 13.2622 0.832698
109 1 7.79308 13.3848 1.63625
110 1 8.22492 0.709398 12.8798
111 1 7.74347 0.557551 2.33484
112 1 8.36721 13.432 0.821469
113 1 4.41938 0.747082 1.63283
114 1 4.90119 1.27743 0.00409212
115 1 4.42634 1.29807 2.44755
116 1 4.94758 0.711946 0.750645
117 1 5.55608 0.762217 1.49278
118 1 6.20655 1.42566 12.9077
119 1 5.47484 1.30465 2.31891
120 1 6.10646 0.82449 0.769214
121 1 6.71436 1.02675 1.66981
122 1 7.26304 1.58069 0.0626089
123 1 6.67736 1.4871 2.50725
124 1 7.23775 0.882689 0.824851
125 1 7.8341 1.24934 1.58518
126 1 8.42451 1.82445 0.0296723
127 1 7.92593 1.70623 2.47261
128 1 8.40805 1.07848 0.887822
129 1 4.49388 1.8434 1.48177
130 1 4.87404 2.44603 12.9506
131 1 4.39086 2.31779 2.36557
132 1 5.05023 1.88654 0.836245
133 1 5.70877 1.87393 1.63606
134 1 6.1463 2.66579 12.9446
135 1 5.58089 2.3698 2.52045
136 1 6.03172 1.9728 0.676031
137 1 6.66156 2.07976 1.49002
138 1 7.29709 2.72459 12.8721
139 1 6.74889 2.43955 2.39953
140 1 7.2219 2.13054 0.733922
141 1 7.6694 2.30703 1.66016
142 1 8.40506 2.89369 12.9133
143 1 7.85571 2.75738 2.54445
144 1 8.31302 2.20633 0.850624
145 1 4.48771 3.02152 1.67357
146 1 5.02772 3.46794 0.0329772
147 1 4.44073 3.44016 2.44855
148 1 5.00414 2.94296 0.892872
149 1 5.60127 2.95003 1.58865
150 1 6.11924 3.82429 0.0396352
151 1 5.60944 3.49955 2.4031
152 1 6.10084 3.22694 0.741002
153 1 6.72864 3.14478 1.67968
154 1 7.24373 3.93842 0.037738
155 1 6.68948 3.53185 2.4317
156 1 7.21052 3.23382 0.71642
157 1 7.84489 3.33116 1.676
158 1 8.42971 3.99958 0.0951657
159 1 7.81666 3.90447 2.49696
160 1 8.33411 3.28532 0.830724
161 1 5.05532 0.111564 3.12252
162 1 4.98913 13.0592 3.94347
163 1 6.23139 0.255771 3.29158
164 1 6.0478 13.085 3.95989
165 1 7.27598 0.302306 3.18413
166 1 7.1939 13.2753 4.1378
167 1 8.35506 0.630961 3.19651
168 1 8.2212 13.4271 3.9854
169 1 5.14087 1.14411 3.36738
170 1 4.80275 0.64749 4.00925
171 1 6.20915 1.26722 3.26297
172 1 6.13165 0.76124 4.17167
173 1 7.35512 1.43723 3.25492
174 1 7.33726 0.800358 4.01923
175 1 8.43042 1.63509 3.2739
176 1 8.36218 1.06408 4.07588
177 1 5.02576 2.36343 3.23397
178 1 5.09979 1.86237 4.06848
179 1 6.32096 2.64356 3.32006
180 1 6.18159 1.86171 3.97691
181 1 7.35938 2.6405 3.23874
182 1 7.27815 1.99025 3.98883
183 1 8.49258 2.83471 3.40193
184 1 8.42353 2.1599 4.06669
185 1 5.01248 3.4773 3.15421
186 1 5.03249 2.91294 3.9891
187 1 6.09122 3.77173 3.18813
188 1 6.1377 3.13884 3.98207
189 1 7.19764 3.82286 3.19523
190 1 7.31183 3.166 3.99324
191 1 8.50484 3.94686 3.08466
192 1 8.27972 3.52131 4.09492
193 1 8.96374 0.155962 1.57709
194 1 9.43286 0.78385 12.9344
195 1 8.81758 0.651152 2.45065
196 1 9.54306 0.251346 0.884681
197 1 10.0579 0.263302 1.64126
198 1 10.5501 0.892324 12.9239
199 1 9.99307 0.788988 2.47155
200 1 10.596 0.432154 0.690185
201 1 11.058 0.464663 1.63445
202 1 11.6956 1.05036 0.0710622
203 1 11.1981 0.98393 2.50404
204 1 11.7117 0.352515 0.821553
205 1 12.1421 0.278757 1.67998
206 1 12.9632 0.679279 12.946
207 1 12.2474 0.969328 2.32602
208 1 12.7594 0.317796 0.930582
209 1 8.92716 1.25311 1.69693
210 1 9.44469 1.91003 0.0455254
211 1 8.88274 1.9608 2.4145
212 1 9.55465 1.35931 0.864562
213 1 9.98117 1.41391 1.59497
214 1 10.5957 2.00321 12.8815
215 1 10.3052 1.9624 2.40284
216 1 10.6155 1.50777 0.800327
217 1 11.164 1.48488 1.54159
218 1 11.6514 2.09269 12.9487
219 1 11.2829 2.09169 2.39762
220 1 11.8545 1.48996 0.856759
221 1 12.4002 1.45844 1.56873
222 1 12.8486 1.95479 12.9383
223 1 12.2147 2.05011 2.35814
224 1 12.9396 1.38629 0.83806
225 1 8.89779 2.39272 1.51704
226 1 9.5755 3.04871 0.0620432
227 1 8.89951 2.96433 2.50379
228 1 9.55852 2.47958 0.816067
229 1 10.0054 2.5778 1.65249
230 1 10.5442 3.10558 12.9116
231 1 10.0033 3.08215 2.3851
232 1 10.6606 2.59 0.800588
233 1 11.0962 2.663 1.55323
234 1 11.742 3.22143 0.0845601
235 1 11.1409 3.14032 2.43728
236 1 11.7612 2.56776 0.82993
237 1 12.3683 2.66104 1.64971
238 1 12.8934 3.15091 12.9476
239 1 12.3429 3.17388 2.51673
240 1 12.9107 2.56893 0.767261
241 1 8.91475 3.50347 1.59705
242 1 9.47711 4.17754 0.0954153
243 1 9.06779 4.00945 2.44361
244 1 9.46693 3.65005 0.820657
245 1 10.0979 3.72645 1.60909
246 1 10.5538 4.33655 0.0176037
247 1 9.97018 4.23178 2.49444
248 1 10.6053 3.67318 0.735231
249 1 11.1166 3.75203 1.66874
250 1 11.7604 4.34577 0.0141471
251 1 11.1492 4.34663 2.52615
252 1 11.6856 3.83897 0.84406
253 1 12.2261 3.66203 1.60771
254 1 12.9125 4.15817 0.00856275
255 1 12.1952 4.25523 2.37421
256 1 12.8007 3.7406 0.822104
257 1 9.44029 0.681334 3.20278
258 1 9.55405 0.333331 4.09931
259 1 10.5881 0.893106 3.23668
260 1 10.5927 0.479418 4.09358
261 1 11.6625 1.0989 3.32645
262 1 11.725 0.360328 4.10584
263 1 12.6036 0.9562 3.27993
264 1 12.9088 0.295602 4.02862
265 1 9.57175 1.82551 3.07785
266 1 9.51005 1.38807 3.91114
267 1 10.5944 2.03958 3.28465
268 1 10.4842 1.50183 4.04321
269 1 11.6728 2.13377 3.44662
270 1 11.7524 1.54269 4.25067
271 1 12.7847 2.01643 3.23738
272 1 13.1269 1.37564 4.00507
273 1 9.53598 2.94098 3.28898
274 1 9.55533 2.52004 4.08746
275 1 10.6039 3.16136 3.20865
276 1 10.7095 2.5956 4.14809
277 1 11.6986 3.16962 3.13558
278 1 11.7923 2.75015 4.09121
279 1 12.9263 3.05324 3.23085
280 1 12.8788 2.41788 4.12301
281 1 9.59984 4.12233 3.31975
282 1 9.48228 3.64809 4.05242
283 1 10.6377 4.32486 3.244
284 1 10.7382 3.6522 3.99796
285 1 11.7853 4.34753 3.29801
286 1 11.8717 3.78021 4.00585
287 1 12.8833 4.17138 3.30938
288 1 12.9618 3.55531 4.13908
289 1 13.3706 4.7235 1.71723
290 1 0.505449 5.12029 0.0426948
291 1 0.0533188 5.30205 2.44451
292 1 0.567577 4.64544 0.853905
293 1 0.965166 4.56898 1.66469
294 1 1.67318 4.98498 12.8089
295 1 1.17067 5.0095 2.3854
296 1 1.70971 4.4688 0.775865
297 1 2.05997 4.48188 1.58532
298 1 2.70004 4.81689 12.9432
299 1 2.25207 4.89472 2.42656
300 1 2.88585 4.36044 0.79952
301 1 3.27383 4.2213 1.67099
302 1 3.92917 4.62868 12.8196
303 1 3.32796 4.82056 2.33385
304 1 3.88805 4.14325 0.777704
305 1 0.0270991 5.85493 1.67617
306 1 0.564845 6.26544 0.054954
307 1 0.0541773 6.47701 2.42553
308 1 0.553313 5.70149 0.851209
309 1 1.12178 5.6459 1.62456
310 1 1.65163 6.16201 12.8913
311 1 1.19153 6.20963 2.46215
312 1 1.65961 5.57976 0.70724
313 1 2.2004 5.49755 1.54361
314 1 2.81356 5.97341 12.887
315 1 2.2417 6.04157 2.33838
316 1 2.76048 5.499 0.7126
317 1 3.3759 5.28094 1.55033
318 1 3.87426 5.82103 0.10075
319 1 3.3807 5.93047 2.37099
320 1 3.98142 5.25983 0.705495
321 1 13.4228 6.9638 1.58694
322 1 0.576136 7.5191 12.8531
323 1 0.0500556 7.48346 2.34329
324 1 0.599218 6.90669 0.71452
325 1 1.11805 6.70082 1.54523
326 1 1.63037 7.26578 12.9364
327 1 1.22874 7.23697 2.35836
328 1 1.77375 6.67848 0.760766
329 1 2.12327 6.669 1.6133
330 1 2.73788 7.03483 12.7662
331 1 2.24362 7.22792 2.42666
332 1 2.86373 6.56673 0.821316
333 1 3.34966 6.38342 1.49032
334 1 3.96378 6.86998 12.9265
335 1 3.33134 7.14785 2.2143
336 1 4.04872 6.52116 0.828682
337 1 0.0806062 8.18807 1.62171
338 1 0.532947 8.59884 12.8843
339 1 0.0373278 8.67209 2.38753
340 1 0.463631 8.05448 0.678975
341 1 1.00142 7.80363 1.47219
342 1 1.66585 8.39607 12.9012
343 1 1.1651 8.35223 2.38736
344 1 1.69143 7.92943 0.733924
345 1 2.16948 7.72295 1.42451
346 1 2.83078 8.19666 12.9292
347 1 2.18725 8.30368 2.28572
348 1 2.8534 7.5546 0.649776
349 1 3.3818 7.70916 1.52373
350 1 3.95548 8.09792 12.9161
351 1 3.35057 8.22444 2.60533
352 1 3.91522 7.58211 0.790056
353 1 0.572529 5.18292 3.25778
354 1 0.629648 4.53491 4.00618
355 1 1.76855 4.99444 3.18677
356 1 1.63373 4.38144 3.91457
357 1 2.83119 5.07592 3.15458
358 1 2.81708 4.40297 4.03665
359 1 3.87824 4.66533 3.30166
360 1 3.8777 4.01297 4.04598
361 1 0.692398 6.35197 3.23275
362 1 0.573209 5.681 3.95994
363 1 1.75745 6.10101 3.21507
364 1 1.69999 5.57488 3.95834
365 1 2.78471 6.17012 3.24167
366 1 2.95436 5.44029 3.99322
367 1 3.96956 5.71864 3.10225
368 1 3.97679 5.30092 3.98352
369 1 0.548357 7.4178 3.13811
370 1 0.638858 6.77872 4.00041
371 1 1.75707 7.3303 3.26041
372 1 1.72919 6.78 3.96018
373 1 2.98596 7.08606 3.09118
374 1 2.85735 6.65156 4.08689
375 1 3.92074 6.8261 3.36872
376 1 4.0192 6.33895 4.07988
377 1 0.552667 8.43012 3.25419
378 1 0.638332 7.79699 3.97959
379 1 1.67142 8.44829 3.21965
380 1 1.8183 7.8962 4.02897
381 1 2.64527 8.14592 3.17298
382 1 2.8597 7.65107 4.00554
383 1 3.95531 7.91576 3.27222
384 1 3.91961 7.44266 4.18531
385 1 4.39463 4.08939 1.60181
386 1 5.14123 4.52617 12.8262
387 1 4.34528 4.5906 2.28275
388 1 4.91772 4.2126 0.72386
389 1 5.44215 4.15274 1.51154
390 1 6.18668 4.79187 12.9415
391 1 5.58801 4.51594 2.431
392 1 6.10862 4.19419 0.954318
393 1 6.7163 4.2728 1.63431
394 1 7.19922 4.93864 0.100145
395 1 6.71462 4.82178 2.31925
396 1 7.27841 4.29516 0.925942
397 1 7.85798 4.28393 1.65595
398 1 8.32836 5.28755 12.8168
399 1 7.78695 4.988 2.48908
400 1 8.41534 4.54746 0.76148
401 1 4.42579 5.3572 1.542
402 1 5.01763 5.84956 12.8086
403 1 4.60397 5.75791 2.37514
404 1 5.14013 5.30116 0.620139
405 1 5.50927 5.25835 1.61768
406 1 6.18478 5.83425 12.7744
407 1 5.75997 5.72693 2.47763
408 1 6.15554 5.27599 0.894429
409 1 6.78136 5.43816 1.54385
410 1 7.32131 6.13052 0.028169
411 1 6.80713 5.8752 2.31328
412 1 7.262 5.38625 0.816081
413 1 7.94046 5.5105 1.51902
414 1 8.47097 6.40928 0.0951422
415 1 8.13612 5.96964 2.50489
416 1 8.41949 5.5049 0.769425
417 1 4.60871 6.35359 1.6713
418 1 4.99682 6.87409 0.0510011
419 1 4.30008 6.94883 2.40719
420 1 5.08165 6.28425 0.745257
421 1 5.73904 6.28837 1.60878
422 1 6.12059 6.96316 0.0193148
423 1 5.57323 6.75576 2.48434
424 1 6.12484 6.33993 0.711518
425 1 6.62486 6.54244 1.61773
426 1 7.34072 7.27018 12.9098
427 1 6.90873 6.98428 2.48803
428 1 7.15947 6.61726 0.742204
429 1 7.7631 6.46868 1.65025
430 1 8.33266 7.51178 0.0359684
431 1 7.82009 7.07531 2.32645
432 1 8.27108 6.73819 0.786508
433 1 4.51405 7.49498 1.71162
434 1 5.07791 7.99366 12.8359
435 1 4.39425 8.06328 2.39065
436 1 4.94865 7.53922 0.779966
437 1 5.54949 7.22467 1.62009
438 1 6.19853 8.17438 0.0304698
439 1 5.53552 7.89876 2.26656
440 1 6.06508 7.56949 0.711734
441 1 6.55988 7.59696 1.55428
442 1 7.37294 8.31418 0.120912
443 1 6.70033 8.00824 2.42884
444 1 7.21064 7.69191 0.826787
445 1 7.8145 7.67405 1.59062
446 1 8.46295 8.5413 0.0890818
447 1 7.7832 8.19382 2.64139
448 1 8.38495 7.85531 0.94179
449 1 4.88566 4.59275 3.1142
450 1 4.96537 4.05008 3.9102
451 1 6.13978 4.8063 3.3002
452 1 5.99317 4.29199 4.08399
453 1 7.32149 4.87594 3.34647
454 1 7.25409 4.30134 4.02785
455 1 8.51932 5.00187 3.33185
456 1 8.38395 4.52329 4.09966
457 1 5.06035 5.71806 3.28428
458 1 5.1197 5.08846 3.96221
459 1 6.30459 5.84897 3.29909
460 1 6.43121 5.27328 4.00254
461 1 7.3442 5.9372 3.14375
462 1 7.36978 5.6849 4.15639
463 1 8.61181 6.1764 3.17329
464 1 7.74488 5.3309 5.06288
465 1 5.02364 6.84625 3.1947
466 1 5.17142 6.37746 3.99791
467 1 6.25407 7.04824 3.09015
468 1 6.23796 6.497 4.00184
469 1 7.20144 7.49221 3.92415
470 1 7.41867 6.81344 3.44387
471 1 8.37762 7.30972 3.26611
472 1 8.32299 6.77018 4.15728
473 1 5.00212 7.91914 3.16324
474 1 5.18025 7.44135 4.01509
475 1 6.04028 8.14643 3.17551
476 1 6.23741 7.53602 3.9437
477 1 7.15825 8.23497 3.36344
478 1 6.72632 7.56166 4.89248
479 1 8.41556 8.23699 3.24801
480 1 8.38234 7.78034 4.2337
481 1 8.8739 4.55976 1.61223
482 1 9.48865 5.23985 12.8321
483 1 8.84209 5.15304 2.36383
484 1 9.47235 4.86721 0.907277
485 1 10.0992 4.8079 1.62941
486 1 10.5655 5.4501 12.8863
487 1 9.9327 5.39588 2.33802
488 1 10.5843 4.88442 0.718129
489 1 11.1753 4.80196 1.68313
490 1 11.7518 5.43273 0.0131482
491 1 11.0332 5.42078 2.51207
492 1 11.6158 4.97089 0.861965
493 1 12.2668 4.73759 1.57167
494 1 12.802 5.27838 12.8685
495 1 12.225 5.3548 2.4214
496 1 12.8471 4.75787 0.820977
497 1 9.0494 5.90562 1.9246
498 1 9.56313 6.34026 0.0280476
499 1 9.61239 6.27144 3.29785
500 1 9.44007 5.82619 0.885656
501 1 10.2093 5.96957 1.52516
502 1 10.6056 6.59956 0.00571054
503 1 9.85474 6.53904 2.44421
504 1 10.7218 5.96155 0.813843
505 1 11.2499 6.01015 1.68442
506 1 11.8595 6.55024 12.7179
507 1 11.1367 6.57104 2.50069
508 1 11.7156 6.02793 0.682047
509 1 12.2279 5.84397 1.51159
510 1 12.9011 6.4581 0.114876
511 1 12.3441 6.43295 2.39497
512 1 12.8934 5.87739 0.771649
513 1 8.91449 6.76297 1.54701
514 1 9.43511 7.58384 0.151949
515 1 8.82809 7.09269 2.4637
516 1 9.59913 6.96745 0.788026
517 1 10.0981 7.13119 1.59854
518 1 10.6776 7.66463 0.0119425
519 1 10.0263 7.58243 2.48388
520 1 10.7021 7.10517 0.74668
521 1 11.1806 7.08354 1.48186
522 1 11.7459 7.62356 12.912
523 1 11.1602 7.64449 2.42713
524 1 11.7683 7.07072 0.691523
525 1 12.2578 7.02186 1.64053
526 1 12.86 7.50127 12.8717
527 1 12.2629 7.44886 2.42789
528 1 12.8634 7.04402 0.855485
529 1 8.98838 7.74888 1.7754
530 1 9.40106 8.76203 0.0396441
531 1 8.87916 8.47788 2.40214
532 1 9.53078 8.13371 0.870966
533 1 10.1108 8.17621 1.63013
534 1 10.6002 8.78636 0.0114564
535 1 9.97112 8.67748 2.5738
536 1 10.562 8.27008 0.780091
537 1 11.1607 8.22689 1.57218
538 1 11.7197 8.74842 0.0672222
539 1 11.1544 8.66998 2.63194
540 1 11.7636 8.16308 0.805971
541 1 12.3638 8.13537 1.64527
542 1 12.8403 8.67169 12.9284
543 1 12.2952 8.58916 2.43761
544 1 12.8131 8.106 0.784408
545 1 9.56054 5.30586 3.21346
546 1 9.44785 4.73309 4.01991
547 1 10.6048 5.40556 3.37463
548 1 10.5608 4.77449 4.06018
549 1 11.646 5.42777 3.30459
550 1 11.8406 4.9989 4.02008
551 1 12.8039 5.32555 3.1313
552 1 12.9409 4.74735 4.01285
553 1 9.58516 6.85212 4.08466
554 1 9.3772 5.70945 4.31189
555 1 10.619 6.52012 3.17187
556 1 10.6127 5.95379 4.08184
557 1 11.8225 6.51455 3.17873
558 1 11.7983 6.06284 4.0242
559 1 12.8819 6.45844 3.24036
560 1 12.9261 5.92732 3.98413
561 1 9.51437 8.01435 4.04703
562 1 9.48069 7.45594 3.29163
563 1 10.688 7.6366 3.34142
564 1 10.7635 7.0488 4.0644
565 1 11.7823 7.71192 3.33033
566 1 11.744 7.08753 3.95943
567 1 12.8286 7.65186 3.14963
568 1 12.9581 7.09255 3.95121
569 1 9.45414 8.59716 3.29077
570 1 9.02764 8.03089 4.8046
571 1 10.6165 8.87129 3.35472
572 1 10.5367 8.26604 4.02027
573 1 11.8425 8.84987 3.22137
574 1 11.7763 8.31877 4.05695
575 1 12.9111 8.64358 3.22703
576 1 12.8627 8.1411 4.13283
577 1 13.3215 9.35136 1.48733
578 1 0.487967 9.64172 0.0298296
579 1 13.3797 9.63441 2.46835
580 1 0.625649 9.10264 0.885046
581 1 1.17082 8.99067 1.52629
582 1 1.67919 9.54136 0.0101305
583 1 1.06249 9.46243 2.40026
584 1 1.70862 9.02737 0.775842
585 1 2.3309 8.82576 1.58332
586 1 2.83878 9.36981 12.8168
587 1 2.19429 9.40685 2.39116
588 1 2.88956 8.80031 0.708126
589 1 3.36668 8.62381 1.68345
590 1 3.90968 9.22621 12.8948
591 1 3.46278 9.24376 2.52622
592 1 3.8972 8.70342 0.763647
593 1 0.0609096 10.309 1.76072
594 1 0.546252 10.8252 0.0473015
595 1 13.2461 10.8256 2.45758
596 1 0.662505 10.1793 0.777564
597 1 1.13908 10.1632 1.68597
598 1 1.66484 10.7062 0.00845337
599 1 1.11098 10.6352 2.42954
600 1 1.66585 10.1548 0.854344
601 1 2.20644 9.8293 1.63239
602 1 2.77565 10.4247 12.8992
603 1 2.24108 10.4883 2.42209
604 1 2.87587 9.87469 0.752206
605 1 3.32202 9.66366 1.64485
606 1 3.94021 10.2694 12.8884
607 1 3.37215 10.2243 2.28011
608 1 3.95534 9.80939 0.728391
609 1 0.0557252 11.4242 1.63681
610 1 0.538032 11.9065 12.864
611 1 0.0266781 11.9561 2.32557
612 1 0.573515 11.363 0.861987
613 1 1.19933 11.2203 1.59106
614 1 1.58127 11.6591 12.9112
615 1 1.1357 11.7643 2.4117
616 1 1.78795 11.2597 0.952912
617 1 2.38444 11.0227 1.60247
618 1 2.75823 11.5347 5.03312e-05
619 1 2.23033 11.5773 2.30632
620 1 2.93806 10.8914 0.822939
621 1 3.41257 10.9177 1.76345
622 1 4.03883 11.4699 0.0121333
623 1 3.39545 11.6824 2.39789
624 1 3.9757 10.907 0.75933
625 1 13.3249 12.5904 1.60339
626 1 0.428183 12.8526 0.0679005
627 1 13.3815 13.0462 2.45684
628 1 0.546659 12.3652 0.917613
629 1 1.16493 12.4132 1.67532
630 1 1.60008 12.823 12.9321
631 1 0.911873 12.9636 2.36921
632 1 1.62654 12.3251 0.77151
633 1 2.13496 12.3581 1.64884
634 1 2.88327 12.6551 0.137848
635 1 2.16564 12.6797 2.59691
636 1 2.61135 12.0642 0.745561
637 1 3.19138 12.1213 1.51751
638 1 3.86323 12.3604 0.12302
639 1 3.44417 12.7678 2.41941
640 1 3.81255 11.9329 0.998261
641 1 0.583619 9.72555 3.25309
642 1 0.499762 9.01537 3.94158
643 1 1.67124 9.46898 3.21435
644 1 1.67592 8.98574 4.05303
645 1 2.72117 9.2425 3.2019
646 1 2.87427 8.7584 4.14913
647 1 3.99861 9.12744 3.33597
648 1 3.89503 8.54082 3.97977
649 1 0.487772 10.7401 3.10387
650 1 0.457744 10.0954 4.06017
651 1 1.68223 10.585 3.21054
652 1 1.65679 10.0174 4.00677
653 1 2.83289 10.3248 3.17738
654 1 2.83303 9.79387 3.93392
655 1 3.84073 10.3978 3.19101
656 1 3.93472 9.70549 4.03768
657 1 0.594409 11.7245 3.20162
658 1 0.494788 11.2141 4.00752
659 1 1.72192 11.738 3.25989
660 1 1.5646 11.15 3.99986
661 1 2.69364 11.421 3.17684
662 1 2.84315 10.9417 4.09068
663 1 3.7569 11.3671 3.28784
664 1 4.07197 10.7842 4.13234
665 1 0.475064 13.0169 3.37927
666 1 0.552714 12.3513 4.08221
667 1 1.48744 12.851 3.09224
668 1 1.71223 12.2531 4.0325
669 1 2.8152 12.717 3.25065
670 1 2.77816 12.0149 3.97239
671 1 4.04079 12.426 3.19881
672 1 3.78893 11.9458 4.00838
673 1 4.51734 8.63163 1.58213
674 1 4.9839 9.05315 0.0110584
675 1 4.5104 9.18761 2.37582
676 1 5.07852 8.47839 0.836454
677 1 5.59327 8.53733 1.61947
678 1 6.16963 9.1649 0.0322041
679 1 5.60064 9.14363 2.27756
680 1 6.20584 8.72845 0.861015
681 1 6.86023 8.56315 1.65227
682 1 7.35178 9.38253 12.8975
683 1 6.58709 9.2534 2.51786
684 1 7.30534 8.92085 0.815084
685 1 7.82158 8.8234 1.77523
686 1 8.46186 9.55956 0.0422471
687 1 7.78064 9.3933 2.50248
688 1 8.36672 8.95744 1.00145
689 1 4.50182 9.79932 1.48391
690 1 5.06305 10.2578 0.0428088
691 1 4.46288 10.189 2.48856
692 1 5.10539 9.56962 0.708357
693 1 5.56229 9.74627 1.55392
694 1 6.18099 10.3135 12.9293
695 1 5.59618 10.3722 2.31858
696 1 6.20923 9.73593 0.855972
697 1 6.76336 9.72034 1.61394
698 1 7.20011 10.3712 12.9501
699 1 6.75334 10.3599 2.26077
700 1 7.35217 9.9561 0.829626
701 1 7.88049 9.95099 1.68859
702 1 8.51143 10.8433 0.0184275
703 1 7.74609 10.6075 2.39172
704 1 8.3879 10.0831 0.712111
705 1 4.44615 10.7846 1.55358
706 1 5.11865 11.5695 12.9435
707 1 4.39887 11.4315 2.31237
708 1 5.03081 10.8998 0.659517
709 1 5.5034 10.8571 1.51976
710 1 6.21846 11.4917 0.009011
711 1 5.48673 11.3686 2.41588
712 1 6.13395 10.8625 0.819408
713 1 6.66996 10.9205 1.57575
714 1 7.38244 11.5481 0.0502171
715 1 6.59433 11.4348 2.45124
716 1 7.29108 11.0754 0.878115
717 1 7.94461 11.1296 1.5663
718 1 8.41455 11.8738 0.0933445
719 1 7.83069 11.6126 2.4596
720 1 8.52772 11.2794 0.858602
721 1 4.46366 11.9505 1.60693
722 1 4.95078 12.6071 0.00338372
723 1 4.49566 12.6518 2.29223
724 1 4.97738 11.9167 0.807742
725 1 5.68448 12.0189 1.67937
726 1 6.07083 12.5976 12.7971
727 1 5.49204 12.619 2.44602
728 1 6.16582 11.9586 0.799041
729 1 6.81318 12.0237 1.73852
730 1 7.31791 12.6867 0.0113181
731 1 6.69085 12.6496 2.40545
732 1 7.21724 12.189 0.822596
733 1 7.83553 12.2582 1.56841
734 1 8.32076 12.8826 0.0341056
735 1 7.82846 12.8391 2.38281
736 1 8.43016 12.3699 0.987599
737 1 4.98863 8.93635 3.16618
738 1 5.02237 8.51454 4.08814
739 1 6.03971 9.21292 3.26051
740 1 6.26838 8.60871 4.04198
741 1 7.20027 9.30102 3.14069
742 1 7.38315 8.86536 4.08589
743 1 8.37327 9.38366 3.28961
744 1 8.32297 8.86262 4.05158
745 1 5.06083 10.1964 3.11502
746 1 5.03945 9.64225 3.86409
747 1 6.17167 10.3587 3.15547
748 1 6.19013 9.63927 4.00956
749 1 7.21087 10.4969 3.2614
750 1 7.15865 9.83466 4.01616
751 1 8.25218 10.6353 3.28531
752 1 8.29336 10.0242 4.00064
753 1 4.87874 11.3144 3.15588
754 1 5.11556 10.7216 3.90713
755 1 6.03619 11.3988 3.22763
756 1 6.16651 10.7231 4.05684
757 1 7.14164 11.7488 3.11468
758 1 7.23302 11.0976 3.88418
759 1 8.43132 11.8482 3.21387
760 1 8.32227 11.1901 3.9527
761 1 5.059 12.3528 3.19438
762 1 5.2014 11.9427 3.99639
763 1 6.21691 12.4899 3.18943
764 1 6.22492 11.927 3.98828
765 1 7.36911 12.7017 3.15099
766 1 7.24914 12.2734 4.08467
767 1 8.47388 12.9725 3.24866
768 1 8.22249 12.322 4.07471
769 1 8.9802 9.19034 1.8222
770 1 9.51925 9.7585 12.8915
771 1 8.94749 9.77381 2.56532
772 1 9.50319 9.24483 0.978341
773 1 10.0726 9.24798 1.72214
774 1 10.7895 9.98691 12.9162
775 1 10.0194 9.83867 2.5564
776 1 10.4968 9.3796 0.736626
777 1 11.0468 9.25235 1.62259
778 1 11.8646 9.96798 0.0981617
779 1 11.1916 9.72796 2.3951
780 1 11.6084 9.29616 0.864755
781 1 12.191 9.34319 1.70894
782 1 12.9567 9.71682 0.227451
783 1 12.3009 9.95376 2.38902
784 1 12.73 9.13832 0.870671
785 1 8.94026 10.1323 1.46161
786 1 9.68955 10.9069 12.9369
787 1 8.83215 10.7266 2.45177
788 1 9.55101 10.3632 0.783433
789 1 10.0641 10.3839 1.73602
790 1 10.8659 11.0514 0.0285743
791 1 9.96173 10.9533 2.52214
792 1 10.5687 10.4105 0.857368
793 1 11.1278 10.4208 1.66541
794 1 11.9119 11.15 12.9482
795 1 11.1304 10.9906 2.39683
796 1 11.7229 10.4807 0.835846
797 1 12.2674 10.498 1.51507
798 1 12.9086 10.6961 0.0449962
799 1 12.205 10.9713 2.39125
800 1 12.9841 10.49 0.900496
801 1 9.11222 11.2865 1.63355
802 1 9.45222 12.0424 0.0255254
803 1 8.86652 11.8553 2.41651
804 1 9.64491 11.4999 0.785659
805 1 10.1991 11.5067 1.55898
806 1 10.6443 12.0875 0.0263747
807 1 10.0397 12.0455 2.46361
808 1 10.6878 11.5714 0.791234
809 1 11.2279 11.6764 1.68485
810 1 11.7595 12.1332 0.00671556
811 1 11.1824 12.1392 2.53074
812 1 11.8736 11.6011 0.92262
813 1 12.4445 11.5668 1.71396
814 1 12.9456 12.1185 12.9216
815 1 12.3024 12.0669 2.51624
816 1 12.8691 11.5729 0.676046
817 1 9.03679 12.3883 1.65431
818 1 9.37487 13.2366 0.0367859
819 1 9.0097 13.0633 2.41311
820 1 9.62013 12.5339 0.741654
821 1 10.0658 12.6056 1.6662
822 1 10.5925 13.2051 12.7572
823 1 10.0164 13.1802 2.55954
824 1 10.5864 12.7796 0.719342
825 1 11.0327 12.8564 1.5596
826 1 11.7636 13.3014 12.9475
827 1 11.1475 13.2682 2.5772
828 1 11.642 12.7355 0.712944
829 1 12.0884 12.6195 1.57522
830 1 12.7853 13.0926 0.0340276
831 1 12.2343 13.1589 2.42239
832 1 12.7761 12.7345 0.867139
833 1 9.522 9.62281 3.34261
834 1 9.6193 9.09611 4.16323
835 1 10.6767 9.88605 3.22865
836 1 10.7774 9.37357 4.18606
837 1 11.7591 10.0096 3.11607
838 1 11.7501 9.3566 4.00851
839 1 12.7826 9.76819 3.31575
840 1 12.8196 9.23457 4.08848
841 1 9.48946 10.9103 3.21954
842 1 9.45582 10.2915 3.9981
843 1 10.6372 10.8674 3.2405
844 1 10.4935 10.3504 4.16062
845 1 11.7441 11.0206 3.32611
846 1 11.6891 10.414 4.09379
847 1 12.8546 10.9521 3.24384
848 1 12.7393 10.3973 4.02069
849 1 9.4672 12.0789 3.23163
850 1 9.48165 11.4478 4.04056
851 1 10.5874 12.0454 3.27798
852 1 10.5751 11.4633 3.98751
853 1 11.8285 12.1352 3.19436
854 1 11.7096 11.6446 3.9985
855 1 13 12.0843 3.32806
856 1 12.8016 11.4158 4.01136
857 1 9.49315 13.1002 3.41272
858 1 9.50305 12.5302 4.21343
859 1 10.6708 13.1489 3.32247
860 1 10.6027 12.7348 4.12647
861 1 11.8496 0.0150028 3.27445
862 1 11.6293 12.6912 4.03876
863 1 12.8152 13.083 3.2522
864 1 12.7075 12.594 4.12646
865 1 0.0602716 0.205255 4.91848
866 1 13.3929 0.642936 5.71841
867 1 1.1839 0.104526 4.81888
868 1 1.08931 0.702971 5.80444
869 1 2.25552 0.057126 4.75758
870 1 2.20935 0.467113 5.77736
871 1 3.31994 13.1003 4.74613
872 1 3.35833 0.223789 5.59495
873 1 0.0194782 1.31994 4.97227
874 1 0.032703 1.84017 5.75543
875 1 1.02139 1.11882 5.00745
876 1 1.20733 1.76444 5.78864
877 1 2.1781 0.985704 4.94853
878 1 2.39178 1.55647 5.84789
879 1 3.36209 0.864312 4.96404
880 1 3.4418 1.51352 5.56361
881 1 0.0349703 2.44994 5.00889
882 1 0.104851 3.01081 5.76711
883 1 1.17007 2.15168 4.78611
884 1 1.16584 2.67023 5.69973
885 1 2.29346 2.13641 4.87485
886 1 2.24093 2.66974 5.6369
887 1 3.32085 1.97729 4.73081
888 1 3.36949 2.5092 5.71993
889 1 0.000779676 3.57115 4.83218
890 1 0.0169202 4.01414 5.72595
891 1 1.16784 3.22075 4.96038
892 1 1.06091 3.94684 5.57318
893 1 2.26473 3.28634 4.85897
894 1 2.25711 3.84228 5.70007
895 1 3.38075 3.07567 4.80448
896 1 3.33255 3.58597 5.71253
897 1 0.0313568 0.320195 8.15143
898 1 0.551517 0.709708 6.57397
899 1 0.546084 0.0790802 7.33394
900 1 1.15304 13.4257 8.01496
901 1 1.78728 0.338371 6.57638
902 1 1.69368 13.3667 7.29584
903 1 2.33643 13.3318 8.04349
904 1 2.92944 0.440917 6.41952
905 1 2.75079 13.1715 7.15915
906 1 3.33441 13.1849 8.21793
907 1 3.99856 0.163431 6.43646
908 1 3.6769 13.1087 7.23289
909 1 13.416 1.4099 8.09556
910 1 0.563555 1.73256 6.50477
911 1 0.536304 1.2487 7.37144
912 1 1.18302 1.11319 8.15045
913 1 1.76838 1.62484 6.56348
914 1 1.68608 1.1193 7.25005
915 1 2.22047 1.02473 8.11768
916 1 3.08662 1.45509 6.59524
917 1 2.79913 0.803557 7.30565
918 1 3.3565 0.866544 8.05677
919 1 4.09398 1.26224 6.37105
920 1 3.95818 0.665069 7.28391
921 1 0.0241198 2.50171 8.07508
922 1 0.632189 2.94186 6.54408
923 1 0.556995 2.35265 7.21406
924 1 1.09779 2.26169 8.14756
925 1 1.66556 2.84825 6.50093
926 1 1.66101 2.2453 7.27795
927 1 2.22233 2.19751 8.0113
928 1 2.6859 2.59681 6.43186
929 1 2.79629 1.99128 7.26114
930 1 3.36677 1.8333 7.97826
931 1 3.94956 2.43486 6.37544
932 1 4.02156 1.87002 7.16512
933 1 13.4008 3.5348 8.01575
934 1 0.618653 4.01392 6.50399
935 1 0.564544 3.60669 7.29458
936 1 1.1689 3.46956 7.97159
937 1 1.65218 3.86913 6.42659
938 1 1.83283 3.39582 7.38285
939 1 2.25958 3.28707 8.15233
940 1 2.78397 3.73181 6.53313
941 1 2.74817 3.00098 7.34816
942 1 3.40235 3.01719 8.11554
943 1 3.84541 3.56129 6.53647
944 1 3.89099 2.96926 7.25317
945 1 4.30442 12.9854 4.81721
946 1 4.58768 0.0209479 5.68974
947 1 5.52457 13.0648 4.82116
948 1 5.60563 0.221739 5.55614
949 1 6.60643 13.2287 4.91289
950 1 6.56473 0.399787 5.66035
951 1 7.87036 0.0253368 4.96336
952 1 7.68389 0.675029 5.67668
953 1 4.45463 0.607667 4.85055
954 1 4.52932 1.25195 5.58017
955 1 5.47714 0.78134 4.73161
956 1 5.62218 1.20592 5.64712
957 1 6.86363 0.945187 4.81952
958 1 6.60979 1.52169 5.59469
959 1 7.86676 1.24457 4.81352
960 1 7.74419 1.78275 5.6537
961 1 4.49237 1.76929 4.74111
962 1 4.50605 2.30377 5.53154
963 1 5.66826 1.88654 4.827
964 1 5.60149 2.37478 5.65111
965 1 6.72535 2.04417 4.76836
966 1 6.7693 2.54051 5.73468
967 1 7.85842 2.32834 4.76154
968 1 7.82507 2.79233 5.64241
969 1 4.53282 3.03298 4.90334
970 1 4.47739 3.5127 5.63064
971 1 5.59624 2.94055 4.7993
972 1 5.66071 3.41295 5.67826
973 1 6.78492 3.12403 4.78802
974 1 6.74021 3.61459 5.61228
975 1 7.93877 3.39871 4.87726
976 1 7.73508 3.91929 5.57701
977 1 4.37936 12.9259 7.97995
978 1 5.11699 0.169553 6.43303
979 1 5.07756 13.1239 7.33945
980 1 5.57428 13.0541 8.09018
981 1 6.20615 0.317031 6.57596
982 1 6.18833 12.9924 7.35794
983 1 6.73283 13.2322 8.177
984 1 7.25711 0.364534 6.42505
985 1 7.21106 13.4303 7.2898
986 1 7.80115 13.3056 7.96001
987 1 8.34309 0.573065 6.43755
988 1 8.47758 0.0881726 7.37434
989 1 4.48791 0.533742 8.13533
990 1 5.08343 1.31553 6.4421
991 1 5.03142 0.75171 7.24321