data.lammps (converted from cfg to data.lammps)
    
2298  atoms
1  atom types
0.0   13.4375  xlo xhi
0.0   13.4375  ylo yhi
0.0   12.952  zlo zhi
0.0  0.0 0.0 xy xz yz
    
    
    
Atoms
  
1 1 13.4058 0.0211882 1.62408
2 1 0.633499 0.622214 0.0663087
3 1 13.4123 0.661951 2.36229
4 1 0.373565 0.0992294 0.746204
5 1 1.00677 13.358 1.56388
6 1 1.6537 0.419016 12.8767
7 1 1.07944 0.49595 2.33207
8 1 1.56141 13.4064 0.779773
9 1 2.28122 13.2014 1.49212
10 1 2.8276 0.183378 12.8477
11 1 2.14405 0.166289 2.50756
12 1 2.85887 13.1741 0.784263
13 1 3.31513 12.9271 1.62487
14 1 4.05892 0.424534 0.0341297
15 1 3.2669 0.315054 2.31781
16 1 3.97375 13.0945 0.855662
17 1 13.3247 1.25422 1.70412
18 1 0.616592 1.8221 12.9179
19 1 0.112654 1.79049 2.50246
20 1 0.436458 1.21424 0.836476
21 1 1.05737 0.997303 1.48221
22 1 1.61179 1.40641 0.0218246
23 1 1.05942 1.57741 2.42902
24 1 1.86187 0.908782 0.863408
25 1 2.12368 0.747446 1.80462
26 1 2.75657 1.29683 12.8709
27 1 2.19682 1.40869 2.4304
28 1 2.78319 0.845829 0.751858
29 1 3.26164 0.834494 1.50052
30 1 3.86 1.42197 0.0723829
31 1 3.3079 1.20533 2.49785
32 1 3.9367 0.690669 0.877337
33 1 0.0186721 2.21562 1.52972
34 1 0.55921 2.79358 12.9079
35 1 13.4162 2.77177 2.36305
36 1 0.59181 2.34753 0.873132
37 1 1.20045 2.12542 1.69002
38 1 1.76059 2.63646 0.103051
39 1 1.07643 2.78781 2.41932
40 1 1.6566 1.95216 0.778222
41 1 2.22947 1.9276 1.59908
42 1 2.91275 2.45701 12.9445
43 1 2.25389 2.56732 2.48708
44 1 2.76077 1.90512 0.787528
45 1 3.28154 1.79478 1.63336
46 1 3.93095 2.59072 12.9194
47 1 3.33469 2.3129 2.45991
48 1 4.01878 1.89899 0.813629
49 1 13.3476 3.42922 1.67104
50 1 0.598028 3.91688 0.101707
51 1 0.00665672 4.06111 2.35874
52 1 0.580665 3.40107 0.8998
53 1 1.16407 3.30276 1.61193
54 1 1.74479 3.79634 0.0419504
55 1 1.14469 3.93594 2.4475
56 1 1.70343 3.2005 0.798978
57 1 2.25743 3.06036 1.7224
58 1 2.80332 3.56677 0.0547354
59 1 2.18764 3.64422 2.41057
60 1 2.7395 2.98003 0.990705
61 1 3.41284 3.00309 1.66155
62 1 4.0019 3.56325 12.8847
63 1 3.3531 3.5772 2.46622
64 1 3.84392 2.93722 0.879715
65 1 0.619291 0.530893 3.18176
66 1 0.486065 13.4086 3.93574
67 1 1.67571 0.396089 3.24506
68 1 1.69638 13.2015 3.96106
69 1 2.8645 0.132706 3.24729
70 1 2.80781 13.0707 4.0148
71 1 3.89275 0.150208 3.26604
72 1 3.79009 13.0272 4.15732
73 1 0.601536 1.67208 3.31696
74 1 0.476139 1.05293 4.05839
75 1 1.70303 1.57608 3.227
76 1 1.50844 1.09 4.06316
77 1 2.74949 1.32925 3.28364
78 1 2.57821 0.784085 4.04438
79 1 3.92595 1.38855 3.29606
80 1 3.86847 0.761185 4.00655
81 1 0.570723 2.84723 3.23896
82 1 0.599287 2.29996 3.98341
83 1 1.67813 2.54986 3.20541
84 1 1.65018 2.03092 4.27297
85 1 2.81563 2.51213 3.27493
86 1 2.76602 1.99357 4.18673
87 1 3.98455 2.59584 3.20941
88 1 3.87762 1.92198 3.96667
89 1 0.477598 3.90725 3.24041
90 1 0.634575 3.31776 4.08617
91 1 1.69126 3.719 3.32094
92 1 1.84084 3.09024 4.01625
93 1 2.77361 3.6256 3.24971
94 1 2.9414 3.00241 4.01401
95 1 3.89773 3.67204 3.1813
96 1 4.01156 3.12148 4.04718
97 1 4.4111 13.1474 1.74201
98 1 5.07421 0.35043 0.144562
99 1 4.2792 0.331968 2.4887
100 1 5.01017 13.1666 0.896491
101 1 5.49928 13.3482 1.63463
102 1 6.16596 0.353761 12.9063
103 1 5.53609 0.387829 2.38681
104 1 6.17655 13.3345 0.844525
105 1 6.72031 13.3711 1.69634
106 1 7.45175 0.568495 12.8602
107 1 6.69783 0.508162 2.43763
108 1 7.22041 13.4298 0.81046
109 1 7.76831 0.0839477 1.56727
110 1 8.50217 0.71545 0.0297845
111 1 7.79188 0.514343 2.36702
112 1 8.46511 0.326817 1.03653
113 1 4.47083 0.899977 1.62687
114 1 5.04969 1.51505 12.903
115 1 4.44404 1.34524 2.43946
116 1 5.0682 1.00479 0.922127
117 1 5.667 1.03265 1.64594
118 1 6.24834 1.51631 0.0835071
119 1 5.61967 1.53521 2.3996
120 1 6.28788 0.890979 0.706633
121 1 6.69213 1.05421 1.60237
122 1 7.37321 1.71497 0.0368404
123 1 6.8358 1.59131 2.51402
124 1 7.32559 1.10955 0.826619
125 1 7.78958 1.32784 1.62676
126 1 8.45138 1.77005 12.7578
127 1 7.88938 1.85939 2.34307
128 1 8.35253 1.37913 0.773177
129 1 4.32817 1.92211 1.71731
130 1 5.08712 2.58306 0.0840793
131 1 4.42756 2.59716 2.41748
132 1 5.03009 2.06923 0.852986
133 1 5.56893 2.1341 1.64454
134 1 6.16651 2.59892 12.8795
135 1 5.62189 2.66816 2.44378
136 1 6.16354 2.10429 0.844691
137 1 6.74409 2.13459 1.59639
138 1 7.30945 2.72797 12.8875
139 1 6.6923 2.70122 2.31838
140 1 7.18642 2.26116 0.824087
141 1 7.87771 2.60025 1.53517
142 1 8.4293 3.04924 12.8396
143 1 7.95272 2.94848 2.41322
144 1 8.39371 2.37008 0.704093
145 1 4.60632 3.03122 1.57536
146 1 5.16383 3.78361 12.8703
147 1 4.53553 3.60192 2.34241
148 1 4.97967 3.25272 0.663987
149 1 5.68644 3.1673 1.51647
150 1 6.20299 3.78693 12.908
151 1 5.76975 3.76187 2.3106
152 1 6.19848 3.22722 0.776667
153 1 6.8232 3.36272 1.57816
154 1 7.27701 4.08106 12.9446
155 1 6.80337 3.87458 2.47466
156 1 7.27134 3.45338 0.757415
157 1 7.84997 3.59342 1.561
158 1 8.35989 4.19641 0.0538802
159 1 7.82975 3.98783 2.41126
160 1 8.34359 3.51047 0.688308
161 1 5.03573 0.342694 3.22566
162 1 4.86479 13.3059 4.11252
163 1 6.15861 0.431578 3.14924
164 1 6.0922 13.319 4.0118
165 1 7.22182 0.55904 3.27833
166 1 7.29037 0.00152266 4.00962
167 1 8.31861 0.801302 3.2165
168 1 8.39338 0.171527 3.94815
169 1 5.00795 1.48601 3.26429
170 1 5.08416 0.900812 3.94193
171 1 6.2366 1.54312 3.11297
172 1 6.06386 1.06006 3.97509
173 1 7.48493 1.76878 3.24467
174 1 7.16525 1.11411 4.08399
175 1 8.4413 1.95587 3.35085
176 1 8.43471 1.33803 4.099
177 1 5.10761 2.54873 3.20689
178 1 5.00106 2.07378 4.02853
179 1 6.26788 2.77037 3.26681
180 1 6.18914 2.12955 3.94925
181 1 7.34679 2.84512 3.09289
182 1 7.28243 2.26369 3.92707
183 1 8.52921 3.09921 3.32999
184 1 8.33239 2.56769 4.11789
185 1 5.07069 3.92009 3.10088
186 1 5.05172 3.27879 3.77195
187 1 6.16304 3.88004 3.24115
188 1 6.11859 3.30475 3.98473
189 1 7.28075 4.0124 3.38297
190 1 7.33235 3.35811 3.97825
191 1 8.37124 4.19175 3.09546
192 1 8.41224 3.74073 3.93211
193 1 8.98216 0.343454 1.67349
194 1 9.51117 1.0697 12.946
195 1 8.8292 0.824307 2.5149
196 1 9.53079 0.408066 0.716483
197 1 9.97964 0.388657 1.69015
198 1 10.757 1.06618 0.0221104
199 1 10.1312 0.944511 2.45528
200 1 10.5647 0.433667 0.743302
201 1 11.0799 0.460792 1.67962
202 1 11.7614 0.821018 12.8693
203 1 11.2762 0.762871 2.55606
204 1 11.6218 0.296642 0.793142
205 1 12.2344 0.336714 1.55296
206 1 12.8834 0.698089 0.0279544
207 1 12.2505 0.809216 2.49139
208 1 12.8216 0.139641 0.869723
209 1 8.98357 1.46137 1.659
210 1 9.57896 2.18212 12.9442
211 1 8.91597 1.9587 2.40133
212 1 9.51714 1.47086 0.81111
213 1 10.1121 1.53188 1.69955
214 1 10.6222 2.03669 12.947
215 1 10.0684 2.06141 2.49726
216 1 10.5981 1.44926 0.885853
217 1 11.2796 1.50194 1.55047
218 1 11.8927 1.94492 12.7165
219 1 11.2136 1.88836 2.34869
220 1 11.8446 1.50259 0.641963
221 1 12.2985 1.33605 1.70204
222 1 12.9998 1.78406 0.0394497
223 1 12.3774 1.96577 2.46045
224 1 12.7967 1.20267 0.820084
225 1 8.94288 2.56281 1.54993
226 1 9.45454 3.2469 12.9351
227 1 8.98876 3.10882 2.45826
228 1 9.46849 2.66823 0.791609
229 1 10.0482 2.51593 1.595
230 1 10.6666 3.05448 0.0425438
231 1 10.1194 3.16313 2.40927
232 1 10.5555 2.56099 0.847188
233 1 11.1636 2.58075 1.69385
234 1 11.7537 3.01848 0.0113474
235 1 11.2144 3.04419 2.45803
236 1 11.689 2.4593 0.807398
237 1 12.3258 2.43634 1.55749
238 1 12.9619 2.96107 12.9484
239 1 12.3456 3.00911 2.39532
240 1 12.793 2.4332 0.777932
241 1 8.88784 3.70038 1.60151
242 1 9.38605 4.34222 0.035213
243 1 9.02867 4.2841 2.45521
244 1 9.5202 3.71657 0.839906
245 1 9.985 3.65743 1.6291
246 1 10.5406 4.16014 0.074252
247 1 10.2057 4.24862 2.34448
248 1 10.6569 3.69937 0.846345
249 1 11.1656 3.73505 1.58284
250 1 11.7331 4.13668 0.0454361
251 1 11.2088 4.16005 2.48044
252 1 11.8598 3.62302 0.756989
253 1 12.2185 3.52063 1.63325
254 1 12.865 4.13035 12.8915
255 1 12.4093 4.19259 2.36712
256 1 12.9389 3.56553 0.879029
257 1 9.57226 0.918764 3.16994
258 1 9.46278 0.41712 4.06654
259 1 10.6682 0.882027 3.32571
260 1 10.6117 0.425383 4.1807
261 1 11.7125 0.795847 3.41789
262 1 11.7386 0.171137 4.18188
263 1 12.8974 0.683051 3.19325
264 1 12.892 0.149062 3.96412
265 1 9.50313 2.08352 3.14047
266 1 9.49887 1.52446 3.9292
267 1 10.7129 2.01915 3.29588
268 1 10.5867 1.50851 4.03014
269 1 11.7912 1.86087 3.20914
270 1 11.7978 1.46424 4.17672
271 1 12.9296 1.77196 3.33971
272 1 12.869 1.19779 4.13621
273 1 9.54369 3.21569 3.25685
274 1 9.61362 2.66803 4.08143
275 1 10.7176 3.17648 3.20558
276 1 10.6872 2.59294 3.93089
277 1 11.879 3.05218 3.20746
278 1 11.6796 2.49181 4.07369
279 1 12.9798 3.05344 3.21059
280 1 12.9079 2.46266 3.96968
281 1 9.56909 4.27931 3.14048
282 1 9.50385 3.88711 3.97022
283 1 10.6294 4.30261 3.21669
284 1 10.7151 3.68349 4.07614
285 1 11.8155 4.18581 3.19514
286 1 11.8188 3.60156 3.98093
287 1 12.8779 4.06777 3.18395
288 1 12.9119 3.49707 4.22708
289 1 0.0238796 4.64975 1.59911
290 1 0.694596 5.11715 12.9385
291 1 13.3292 5.13627 2.5192
292 1 0.54579 4.49858 0.804662
293 1 1.05818 4.36414 1.6048
294 1 1.71933 4.8455 0.0454378
295 1 1.02548 4.96232 2.53445
296 1 1.75006 4.382 0.866639
297 1 2.28913 4.20011 1.58902
298 1 2.82169 4.73372 12.9311
299 1 2.11931 4.81084 2.44591
300 1 2.89813 4.10603 0.734692
301 1 3.2879 4.18287 1.72789
302 1 3.9777 4.52486 12.929
303 1 3.39898 4.76871 2.43332
304 1 3.92095 4.00618 0.828204
305 1 13.3959 5.68375 1.6426
306 1 0.464604 6.19321 12.819
307 1 13.3801 6.33734 2.47751
308 1 0.477495 5.71513 0.78911
309 1 1.10628 5.46756 1.68572
310 1 1.59865 5.94534 12.9396
311 1 1.00347 6.05101 2.33951
312 1 1.60785 5.51521 0.889407
313 1 2.19825 5.34239 1.68419
314 1 2.72396 5.81719 12.9267
315 1 2.22939 5.93083 2.49162
316 1 2.76772 5.26587 0.785065
317 1 3.2708 5.26594 1.68177
318 1 3.90932 5.87365 0.100386
319 1 3.4309 5.81502 2.46764
320 1 3.92839 5.20143 0.679977
321 1 0.0347952 6.80198 1.67122
322 1 0.472113 7.34212 12.8812
323 1 13.3906 7.48379 2.2856
324 1 0.478642 6.66393 0.82246
325 1 1.1306 6.66652 1.61075
326 1 1.71679 7.02869 12.893
327 1 1.16355 7.14922 2.48085
328 1 1.61863 6.56821 0.826369
329 1 2.22825 6.4583 1.62142
330 1 2.7826 6.89278 0.0156487
331 1 2.21285 7.09712 2.50393
332 1 2.72023 6.41926 0.842217
333 1 3.28258 6.31169 1.57737
334 1 3.8673 6.96053 0.0593336
335 1 3.22398 6.90004 2.34074
336 1 3.87517 6.33679 0.857268
337 1 0.0465122 8.0063 1.43196
338 1 0.532853 8.44966 12.8607
339 1 0.0349446 8.44177 2.41925
340 1 0.659056 7.78541 0.633327
341 1 1.15571 7.79512 1.6117
342 1 1.78634 8.14173 12.856
343 1 1.13188 8.23998 2.53111
344 1 1.67868 7.60575 0.766501
345 1 2.1382 7.56781 1.71666
346 1 2.86875 7.95977 0.107089
347 1 2.23488 8.22435 2.45304
348 1 2.74572 7.4515 0.955119
349 1 3.38898 7.50367 1.59592
350 1 4.03985 8.09608 0.037774
351 1 3.29907 8.01563 2.46047
352 1 3.94663 7.42196 0.877104
353 1 0.482506 4.94969 3.25034
354 1 0.633862 4.426 4.14406
355 1 1.57943 4.91012 3.29617
356 1 1.75926 4.24969 4.12473
357 1 2.76843 4.70198 3.11063
358 1 3.01308 4.13385 4.03373
359 1 4.03129 4.68923 3.11073
360 1 3.96662 4.28096 4.00209
361 1 0.495102 6.11674 3.22229
362 1 0.548362 5.48921 3.9666
363 1 1.68043 6.01761 3.10954
364 1 1.76504 5.45939 3.9856
365 1 2.93143 5.87623 3.31716
366 1 2.78514 5.28231 3.91047
367 1 4.05344 5.74768 3.16478
368 1 3.8121 5.28341 4.01572
369 1 0.500513 7.19777 3.10537
370 1 0.386888 6.57958 4.09817
371 1 1.62243 7.07922 3.38212
372 1 1.5331 6.44723 4.03197
373 1 2.7653 6.99739 3.37422
374 1 2.67983 6.3713 4.04421
375 1 3.82297 6.94512 3.23318
376 1 3.87035 6.42552 4.03468
377 1 0.551256 8.36091 3.32146
378 1 0.618093 7.63649 3.99314
379 1 1.71233 8.2909 3.29171
380 1 1.61718 7.72039 4.05782
381 1 2.70454 8.10069 3.33223
382 1 2.9464 7.57794 4.25785
383 1 3.85201 8.18415 3.19232
384 1 3.96523 7.60261 3.94006
385 1 4.47574 4.14688 1.59642
386 1 5.10896 4.82449 12.9516
387 1 4.57286 4.74947 2.38249
388 1 5.05364 4.23006 0.848496
389 1 5.62906 4.43323 1.68455
390 1 6.20081 4.8997 0.126597
391 1 5.43382 5.00097 2.60956
392 1 6.2515 4.37716 0.876082
393 1 6.66554 4.48671 1.78256
394 1 7.32176 5.06267 12.874
395 1 6.72847 5.01862 2.48116
396 1 7.30895 4.57778 0.88232
397 1 7.7861 4.71095 1.66559
398 1 8.48639 5.29013 0.0372992
399 1 7.84217 5.20885 2.43421
400 1 8.37053 4.71152 0.829026
401 1 4.36899 5.222 1.49098
402 1 4.97729 5.90285 12.9353
403 1 4.54939 5.84792 2.30294
404 1 5.04363 5.46104 0.811765
405 1 5.66432 5.37577 1.45112
406 1 6.10599 6.08247 12.8218
407 1 5.57022 6.0232 2.2108
408 1 6.19603 5.64887 0.673863
409 1 6.63722 5.61075 1.6054
410 1 7.20761 6.20286 12.9291
411 1 6.55153 6.04997 2.36941
412 1 7.34044 5.59947 0.759508
413 1 7.6741 5.77041 1.66558
414 1 8.37499 6.27953 12.9088
415 1 7.78354 6.30177 2.5529
416 1 8.44438 5.84492 0.911097
417 1 4.43279 6.28324 1.54791
418 1 5.04093 6.98899 0.0266338
419 1 4.40212 6.92422 2.4063
420 1 5.07033 6.4728 0.872102
421 1 5.57856 6.72532 1.66157
422 1 6.22326 7.12544 12.8845
423 1 5.63324 7.27158 2.48735
424 1 6.2076 6.59546 0.941347
425 1 6.69605 6.83601 1.65129
426 1 7.2797 7.27482 0.0535092
427 1 6.73725 7.18015 2.4777
428 1 7.32016 6.68465 0.880627
429 1 7.7999 6.74005 1.64961
430 1 8.3018 6.92047 0.744816
431 1 7.78925 7.45971 2.26617
432 1 8.83502 7.11228 1.55748
433 1 4.58615 7.5307 1.63891
434 1 5.05246 8.29111 12.8617
435 1 4.46439 7.99504 2.32241
436 1 5.03495 7.62291 0.712702
437 1 5.63038 7.82291 1.43774
438 1 6.13841 8.38044 0.128315
439 1 5.58622 8.27003 2.45262
440 1 6.21155 7.68415 0.630468
441 1 6.6799 7.89906 1.63239
442 1 7.28784 8.34308 12.926
443 1 6.71011 8.39099 2.60509
444 1 7.3017 7.79311 0.878928
445 1 7.87158 8.02535 1.61872
446 1 8.54136 7.96713 0.761396
447 1 7.85293 9.07773 1.57575
448 1 8.40255 7.46691 12.8812
449 1 4.99554 5.38347 3.99691
450 1 5.10508 4.40653 3.85731
451 1 6.0747 4.90725 3.14418
452 1 6.20877 4.39195 4.13485
453 1 7.2922 4.96372 3.24857
454 1 7.28906 4.58607 4.20922
455 1 8.40608 5.2988 3.36721
456 1 8.41928 4.74951 4.05508
457 1 5.11443 6.06055 3.27155
458 1 4.47317 5.24573 4.79729
459 1 6.01088 6.12122 3.23961
460 1 6.1506 5.49537 4.03969
461 1 7.12022 6.10615 3.13762
462 1 7.79621 5.64257 4.99464
463 1 8.43434 6.37596 3.24157
464 1 7.83531 5.12246 5.80283
465 1 4.92224 7.06706 3.15059
466 1 4.94397 6.49915 4.08532
467 1 6.21134 7.17239 3.17562
468 1 6.06331 6.62643 4.03609
469 1 7.22374 7.8588 4.00833
470 1 7.33643 7.21093 3.31885
471 1 8.31312 7.408 3.22325
472 1 8.42991 6.90544 4.00592
473 1 4.95473 8.17406 3.23066
474 1 5.14698 7.62288 3.95568
475 1 6.11476 8.33644 3.23524
476 1 6.18837 7.70724 4.01779
477 1 7.35158 8.30397 3.09163
478 1 6.67204 7.69485 4.90797
479 1 7.95058 8.61015 2.45398
480 1 8.44962 8.05608 3.95006
481 1 8.97186 4.72055 1.55284
482 1 9.57417 5.39991 0.0206722
483 1 8.81264 5.28334 2.32631
484 1 9.6402 4.82934 0.845334
485 1 10.0667 4.88639 1.67788
486 1 10.6135 5.26968 0.0968693
487 1 10.0339 5.41425 2.55596
488 1 10.7002 4.71783 0.785251
489 1 11.097 4.83371 1.71709
490 1 11.7847 5.27047 12.9248
491 1 11.0938 5.35279 2.47318
492 1 11.7908 4.80946 0.813507
493 1 12.2318 4.70804 1.62353
494 1 12.9659 5.13644 0.0572906
495 1 12.289 5.34599 2.39712
496 1 12.8463 4.57421 0.825624
497 1 8.95169 5.90524 1.59646
498 1 9.42924 6.49902 12.891
499 1 9.50339 6.57232 3.32407
500 1 9.53909 5.96567 0.824925
501 1 10.0715 5.93086 1.70359
502 1 10.5952 6.48237 12.9262
503 1 9.97935 6.63366 2.36129
504 1 10.5444 5.9281 0.861149
505 1 11.1167 6.06713 1.57223
506 1 11.7673 6.55647 0.0908229
507 1 11.1766 6.53986 2.4149
508 1 11.6668 5.94683 0.83383
509 1 12.2875 5.78961 1.58026
510 1 12.8226 6.23646 0.0665124
511 1 12.1756 6.3631 2.36527
512 1 12.7864 5.67052 0.796338
513 1 9.03493 6.52053 2.33012
514 1 9.57642 7.49267 12.8668
515 1 8.89524 7.47857 2.46262
516 1 9.38427 7.02269 0.799395
517 1 9.96739 7.16647 1.4764
518 1 10.6261 7.70934 12.8808
519 1 10.1357 7.66061 2.3668
520 1 10.6601 7.11328 0.648494
521 1 11.0915 7.16497 1.49397
522 1 11.6611 7.62304 12.8517
523 1 11.1961 7.58528 2.42461
524 1 11.7446 7.09602 0.726505
525 1 12.1915 6.8918 1.57762
526 1 12.818 7.3639 0.0104723
527 1 12.297 7.46749 2.41296
528 1 12.9183 6.86521 0.850936
529 1 9.01859 8.20792 1.58532
530 1 9.5895 8.74291 12.8001
531 1 8.58727 8.59518 3.27576
532 1 9.58133 8.19103 0.741809
533 1 10.0933 8.3261 1.53898
534 1 10.6144 8.76563 0.0332313
535 1 10.1599 8.80968 2.40241
536 1 10.6843 8.18004 0.862913
537 1 11.1483 8.2133 1.64657
538 1 11.7208 8.66068 12.9261
539 1 11.3512 8.72887 2.37445
540 1 11.7853 8.17435 0.802158
541 1 12.3054 7.96441 1.57505
542 1 12.859 8.5627 0.0609338
543 1 12.3447 8.64313 2.39376
544 1 12.9133 7.86959 0.732937
545 1 9.37202 5.49208 3.21171
546 1 9.5042 5.02407 3.9808
547 1 10.64 5.41694 3.24235
548 1 10.6282 4.86882 4.04838
549 1 11.7545 5.25054 3.23086
550 1 11.7176 4.66894 4.04029
551 1 12.8259 5.2164 3.33173
552 1 12.9119 4.50316 4.08184
553 1 9.44183 7.19102 4.04058
554 1 9.52329 6.02169 4.16389
555 1 10.5394 6.55767 3.18308
556 1 10.5976 6.1151 3.97939
557 1 11.7388 6.35979 3.26745
558 1 11.6896 5.85266 3.95814
559 1 12.7407 6.32835 3.17678
560 1 12.8448 5.79903 4.03499
561 1 9.58027 8.79961 3.18361
562 1 9.51825 7.70219 3.19392
563 1 10.5669 7.69877 3.1609
564 1 10.7041 7.17865 3.9766
565 1 11.7524 7.54744 3.20094
566 1 11.8039 7.08666 4.02401
567 1 12.836 7.36816 3.27974
568 1 12.9124 6.83722 4.1078
569 1 9.00803 8.58269 2.35922
570 1 8.90651 8.16933 4.78825
571 1 10.6969 8.75477 3.24244
572 1 10.6648 8.16734 4.0622
573 1 11.7694 8.63337 3.34724
574 1 11.7032 8.1623 4.13078
575 1 12.865 8.53246 3.22125
576 1 12.9237 7.90693 3.98928
577 1 0.0650923 9.05639 1.52221
578 1 0.543954 9.54796 12.8441
579 1 13.4229 9.5562 2.52333
580 1 0.734405 8.98599 0.728104
581 1 1.07399 8.79795 1.66449
582 1 1.67736 9.22904 0.0892144
583 1 1.16993 9.41231 2.40243
584 1 1.73716 8.65309 0.778577
585 1 2.2776 8.64231 1.65609
586 1 2.82056 9.22845 0.0200347
587 1 2.27154 9.26263 2.52528
588 1 2.88948 8.65903 0.834892
589 1 3.35798 8.5871 1.73131
590 1 3.97852 9.05751 0.0290107
591 1 3.42488 9.13089 2.54561
592 1 3.93476 8.53163 0.876931
593 1 0.0479121 10.0625 1.72879
594 1 0.537536 10.5798 12.9038
595 1 0.0550856 10.7199 2.39384
596 1 0.582684 10.0725 0.794987
597 1 1.13845 9.9103 1.62752
598 1 1.75011 10.249 12.8387
599 1 1.19699 10.5544 2.44428
600 1 1.67695 9.8538 0.792115
601 1 2.32415 9.69185 1.64668
602 1 2.84991 10.3089 0.0800905
603 1 2.26122 10.3171 2.34995
604 1 2.81645 9.66518 0.792633
605 1 3.47203 9.62305 1.65655
606 1 3.98883 10.212 0.0627875
607 1 3.42723 10.2176 2.3941
608 1 3.9786 9.64894 0.85677
609 1 0.0560255 11.312 1.6417
610 1 0.567525 11.539 0.0860083
611 1 13.3648 11.9688 2.39708
612 1 0.681658 11.1249 0.971335
613 1 1.18546 10.9818 1.62506
614 1 1.66698 11.5367 0.09905
615 1 1.08886 11.7058 2.51992
616 1 1.66585 10.794 0.628106
617 1 2.13155 10.8363 1.51387
618 1 2.86027 11.462 0.120932
619 1 2.45046 11.3602 2.29496
620 1 2.76528 10.7603 0.819009
621 1 3.32801 10.6607 1.54241
622 1 3.90781 11.5131 0.107738
623 1 3.44102 11.3223 2.36474
624 1 3.94603 10.861 0.850968
625 1 0.0378276 12.346 1.53345
626 1 0.54418 12.8517 0.0492961
627 1 13.3239 12.9934 2.40806
628 1 0.578988 12.2599 0.702693
629 1 1.07028 12.1999 1.61101
630 1 1.7712 12.7005 0.0213467
631 1 1.11607 12.8441 2.28171
632 1 1.67998 12.2055 0.849519
633 1 2.12579 12.0236 1.65429
634 1 2.8014 12.569 12.8988
635 1 2.1944 12.5882 2.4901
636 1 2.71705 11.9714 0.867723
637 1 3.27765 11.9257 1.53052
638 1 3.85937 12.566 0.159508
639 1 3.41577 12.5388 2.44925
640 1 4.00077 11.9466 0.957971
641 1 0.560727 9.50957 3.17241
642 1 0.520217 8.99016 4.03814
643 1 1.70383 9.32654 3.26871
644 1 1.73959 8.77279 4.20861
645 1 2.95073 9.20446 3.34888
646 1 2.86504 8.60671 4.0616
647 1 4.18179 9.16624 3.22107
648 1 3.88919 8.68515 4.11651
649 1 0.700905 10.5393 3.25607
650 1 0.623931 10.0536 4.12199
651 1 1.77421 10.4541 3.24332
652 1 1.8115 9.84062 4.02944
653 1 2.87845 10.3451 3.17624
654 1 2.84501 9.80542 4.11038
655 1 3.97071 10.2765 3.3584
656 1 4.00142 9.66645 3.97136
657 1 0.409614 11.6271 3.22598
658 1 0.629344 11.2346 3.98767
659 1 1.69385 11.4215 3.07188
660 1 1.6385 10.9556 4.1063
661 1 2.79435 11.4003 3.27732
662 1 2.7339 10.8353 4.0992
663 1 3.94533 11.3736 3.35709
664 1 3.97718 10.9 4.09748
665 1 0.61269 12.8178 3.12687
666 1 0.567343 12.3456 4.06549
667 1 1.63798 12.5541 3.2329
668 1 1.58904 12.0199 4.0013
669 1 2.84057 12.484 3.13769
670 1 2.67467 11.9877 3.97148
671 1 3.96961 12.5219 3.24611
672 1 3.715 12.0838 4.08343
673 1 4.49081 8.74902 1.58276
674 1 5.08187 9.22421 0.0347396
675 1 4.69094 9.22472 2.36935
676 1 5.14151 8.80367 0.925655
677 1 5.74829 8.81207 1.58023
678 1 6.19688 9.57038 12.7174
679 1 5.70469 9.35445 2.35527
680 1 6.25592 9.07847 0.700274
681 1 6.77239 8.92195 1.63902
682 1 7.41862 9.58091 12.9399
683 1 6.8184 9.52269 2.50091
684 1 7.33252 8.9505 0.71042
685 1 8.45837 9.05587 0.794096
686 1 8.46395 9.77946 12.9387
687 1 7.90136 9.65425 2.46326
688 1 8.3495 8.59282 12.8968
689 1 4.61793 9.87099 1.66863
690 1 5.18321 10.358 12.7841
691 1 4.46606 10.2704 2.56209
692 1 5.00379 9.93515 0.71383
693 1 5.58788 9.9893 1.59642
694 1 6.11229 10.6336 12.8674
695 1 5.79049 10.5221 2.44184
696 1 6.02834 10.0901 0.739937
697 1 6.83141 9.99053 1.55442
698 1 7.18748 10.718 12.8154
699 1 6.77066 10.6464 2.26973
700 1 7.0663 10.154 0.69057
701 1 7.87557 10.1163 1.49502
702 1 8.42488 10.909 0.064696
703 1 7.85528 10.6742 2.51854
704 1 8.34121 10.3336 0.735671
705 1 4.47044 10.8327 1.7274
706 1 5.02761 11.5811 12.8346
707 1 4.33527 11.4928 2.34987
708 1 4.96831 10.9423 0.634528
709 1 5.49508 10.9863 1.54594
710 1 6.11516 11.5989 0.0300211
711 1 5.53087 11.5841 2.29322
712 1 6.15888 11.1621 0.870563
713 1 6.70315 11.1953 1.52427
714 1 7.24184 11.7144 0.11589
715 1 6.60383 11.6569 2.5496
716 1 7.4116 11.1797 0.818232
717 1 7.94811 11.231 1.6116
718 1 8.38366 11.9706 12.8067
719 1 7.67027 11.7326 2.43732
720 1 8.5102 11.6526 0.784858
721 1 4.56922 12.0407 1.57306
722 1 5.10818 12.6378 0.0123198
723 1 4.49572 12.5776 2.47009
724 1 5.12798 12.032 0.800138
725 1 5.68027 12.2146 1.62533
726 1 6.07497 12.7875 12.8606
727 1 5.50153 12.7766 2.4945
728 1 6.23534 12.3301 0.738799
729 1 6.71686 12.1762 1.62838
730 1 7.34053 12.9079 12.9483
731 1 6.67645 12.828 2.40853
732 1 7.33507 12.3966 0.827147
733 1 7.80618 12.3914 1.75263
734 1 8.315 13.1067 0.0727445
735 1 7.84215 12.9282 2.45979
736 1 8.44744 12.636 0.928471
737 1 5.23981 9.3258 3.40258
738 1 5.25934 8.74104 4.03567
739 1 6.2441 9.39903 3.26894
740 1 6.44485 8.86965 4.12388
741 1 7.39243 9.43436 3.21066
742 1 7.37205 8.95761 4.00187
743 1 8.5996 9.76609 3.39678
744 1 8.418 9.10825 4.07074
745 1 5.16442 10.4268 3.03506
746 1 5.1036 9.9321 4.1019
747 1 6.31971 10.5532 3.42264
748 1 6.29051 9.93331 4.04722
749 1 7.2538 10.4998 3.28007
750 1 7.3621 9.91236 4.22429
751 1 8.44412 10.861 3.22282
752 1 8.41288 10.4188 4.17821
753 1 5.00474 11.4894 3.16816
754 1 5.12674 10.9038 4.09195
755 1 6.03033 11.6214 3.179
756 1 6.02881 11.1568 4.03482
757 1 7.22001 11.6385 3.26801
758 1 7.31133 11.1033 4.14832
759 1 8.3208 11.9032 3.11413
760 1 8.33821 11.4514 4.07874
761 1 5.05922 12.6702 3.32566
762 1 5.02106 11.9932 3.93874
763 1 6.19446 12.7047 3.30751
764 1 6.25031 12.1612 4.12853
765 1 7.24108 12.7899 3.19481
766 1 7.30549 12.2263 3.93342
767 1 8.31241 13.0777 3.28386
768 1 8.44877 12.4849 4.13647
769 1 9.05689 9.42801 1.53006
770 1 9.45956 9.79 0.0306029
771 1 8.86937 9.74247 2.3729
772 1 9.51139 9.216 0.77224
773 1 10.0906 9.3616 1.5723
774 1 10.5904 9.96287 0.0254638
775 1 10.0114 9.83552 2.37373
776 1 10.7948 9.33779 0.780528
777 1 11.21 9.26607 1.52664
778 1 11.6965 9.87718 12.9393
779 1 11.3051 9.84904 2.33159
780 1 11.9007 9.24294 0.813966
781 1 12.4195 9.0665 1.57305
782 1 12.7958 9.71112 0.0349595
783 1 12.3032 9.72312 2.41135
784 1 13.0418 9.09736 0.754128
785 1 8.93118 10.5069 1.55546
786 1 9.50848 10.8483 12.8449
787 1 9.07194 10.9007 2.51097
788 1 9.51456 10.4884 0.816696
789 1 10.1264 10.4984 1.69746
790 1 10.7012 11.1533 0.0661738
791 1 10.1611 11.0689 2.33382
792 1 10.4989 10.5082 0.773628
793 1 11.1814 10.5296 1.6073
794 1 11.7228 10.8309 0.177766
795 1 11.2668 11.0959 2.48265
796 1 11.7017 10.3122 0.897356
797 1 12.465 10.2223 1.60729
798 1 12.7284 10.761 12.9363
799 1 12.3641 10.814 2.40021
800 1 13.0187 10.3305 0.815204
801 1 8.91827 11.4132 1.67489
802 1 9.55081 12.1305 0.10104
803 1 8.93027 12.0179 2.48237
804 1 9.5102 11.5847 0.72971
805 1 9.93452 11.8068 1.55884
806 1 10.6435 12.2073 0.00686837
807 1 10.0332 12.0731 2.56847
808 1 10.6738 11.6142 0.930274
809 1 11.1649 11.6213 1.56792
810 1 11.6977 11.9892 12.9395
811 1 11.1241 12.0597 2.41838
812 1 11.9037 11.5075 0.786256
813 1 12.297 11.2993 1.63
814 1 12.8086 11.8722 12.9075
815 1 12.2477 12.0365 2.32334
816 1 12.9047 11.3142 0.766041
817 1 8.95234 12.5925 1.67897
818 1 9.50312 13.3579 12.9312
819 1 8.90678 13.102 2.43262
820 1 9.50366 12.736 0.739088
821 1 10.0809 12.8551 1.47161
822 1 10.6614 13.3574 12.8552
823 1 10.0594 13.0871 2.50237
824 1 10.6329 12.747 0.661583
825 1 11.0438 12.6266 1.58921
826 1 11.8136 13.2408 12.9188
827 1 11.1235 13.2214 2.31202
828 1 11.6504 12.6389 0.720596
829 1 12.2223 12.6013 1.57037
830 1 12.8224 12.9925 12.9435
831 1 12.2301 13.1672 2.3702
832 1 12.8548 12.4124 0.909039
833 1 9.51681 9.83039 3.17817
834 1 9.69585 9.32124 4.12216
835 1 10.6695 9.94621 3.1295
836 1 10.6715 9.28093 4.13778
837 1 11.7896 9.70458 3.22895
838 1 11.7361 9.19879 4.11212
839 1 12.852 9.68783 3.35602
840 1 12.8915 9.03586 3.96706
841 1 9.61237 10.9135 3.15038
842 1 9.55013 10.3471 4.0331
843 1 10.5409 10.925 3.2362
844 1 10.702 10.2105 4.09045
845 1 11.7927 10.9887 3.17834
846 1 11.8553 10.3696 3.87286
847 1 12.9608 10.7784 3.15199
848 1 13.0101 10.3444 3.9486
849 1 9.45934 12.0541 3.41764
850 1 9.4551 11.5138 4.09183
851 1 10.6423 12.1298 3.3027
852 1 10.6833 11.4971 3.95124
853 1 11.7072 12.1022 3.18106
854 1 11.7716 11.4726 4.02871
855 1 12.7756 11.834 3.24805
856 1 12.9017 11.2582 4.10505
857 1 9.43771 13.212 3.134
858 1 9.52821 12.7637 3.98266
859 1 10.6999 13.2896 3.26151
860 1 10.6504 12.7671 4.05395
861 1 11.7883 13.2132 3.24169
862 1 11.7622 12.5575 4.10518
863 1 12.8643 13.0141 3.23681
864 1 12.8562 12.362 3.95524
865 1 13.3838 0.014201 4.79585
866 1 13.369 0.514607 5.59405
867 1 1.06797 13.2846 4.71189
868 1 1.11342 0.217987 5.64896
869 1 2.19911 13.1775 4.83932
870 1 2.25423 0.308431 5.72228
871 1 3.26453 13.1519 4.87564
872 1 3.3278 0.310452 5.66908
873 1 13.4365 1.19843 4.97122
874 1 13.3714 1.67103 5.82984
875 1 1.01158 0.804015 4.86353
876 1 1.18347 1.45434 5.59633
877 1 2.14544 0.874539 4.82546
878 1 2.20363 1.40324 5.67825
879 1 3.24904 0.830155 4.69595
880 1 3.23247 1.30272 5.77796
881 1 13.3132 2.1819 4.8159
882 1 13.3827 2.69473 5.69071
883 1 0.907793 2.15075 4.92084
884 1 1.21596 2.52371 5.65624
885 1 2.27203 2.07083 4.92395
886 1 2.27948 2.58931 5.70941
887 1 3.37868 1.81511 4.89126
888 1 3.35924 2.40128 5.72779
889 1 0.0314275 3.24927 4.8724
890 1 13.4223 3.77166 5.65983
891 1 1.2681 3.17253 4.77214
892 1 1.13057 3.65199 5.64692
893 1 2.37836 3.2325 4.91012
894 1 2.23484 3.7193 5.60425
895 1 3.44898 2.9562 4.8897
896 1 3.42534 3.53824 5.76073
897 1 13.3592 13.3803 8.14979
898 1 0.510511 0.383375 6.50965
899 1 0.49667 13.3226 7.34185
900 1 1.08338 13.2559 8.01209
901 1 1.58638 0.381071 6.44405
902 1 1.81383 13.3001 7.1824
903 1 2.11172 13.1843 8.22158
904 1 2.82966 0.198827 6.56341
905 1 2.86006 12.9689 7.32577
906 1 3.21851 13.1819 8.17642
907 1 3.92112 13.4 6.59718
908 1 3.92539 13.0556 7.50814
909 1 13.4212 1.00721 8.21949
910 1 0.572458 1.51454 6.44767
911 1 0.502497 1.05243 7.32358
912 1 1.14223 0.910299 8.05968
913 1 1.63783 1.47614 6.55551
914 1 1.69292 0.872106 7.29551
915 1 2.34084 0.806646 8.00636
916 1 2.74529 1.28848 6.62775
917 1 2.92689 0.770262 7.3858
918 1 3.51236 0.896898 8.20456
919 1 3.84132 1.1277 6.54856
920 1 3.95964 0.647606 7.35145
921 1 0.100867 2.24649 8.12338
922 1 0.526088 2.66287 6.48896
923 1 0.598654 2.11131 7.33051
924 1 1.1626 2.04478 8.25329
925 1 1.6451 2.48107 6.47029
926 1 1.6274 2.01198 7.38033
927 1 2.23484 1.91243 8.12531
928 1 2.72775 2.37048 6.5372
929 1 2.78046 1.90434 7.40125
930 1 3.44437 1.90233 8.16896
931 1 3.9657 2.41659 6.4721
932 1 3.92978 1.8612 7.16433
933 1 0.0388333 3.30841 8.08715
934 1 0.547311 3.87297 6.37663
935 1 0.649223 3.26432 7.20658
936 1 1.09265 3.17012 8.09389
937 1 1.75722 3.63635 6.43538
938 1 1.7412 3.07463 7.3897
939 1 2.34428 3.04136 8.18279
940 1 2.77134 3.56944 6.52236
941 1 2.88871 3.05106 7.28667
942 1 3.40068 3.12703 8.12576
943 1 3.88367 3.46659 6.43502
944 1 3.93766 2.92311 7.3281
945 1 4.39752 13.1192 4.95199
946 1 4.38948 0.336987 5.60289
947 1 5.50717 13.3168 4.79951
948 1 5.54445 0.329754 5.58866
949 1 6.63788 0.046214 4.72488
950 1 6.67989 0.426896 5.60601
951 1 7.79237 0.0588986 4.78561
952 1 7.5953 0.751589 5.4394
953 1 4.36736 0.82136 4.76439
954 1 4.29436 1.41741 5.63806
955 1 5.45721 1.04008 4.88174
956 1 5.40099 1.5331 5.65838
957 1 6.50964 1.04117 4.83979
958 1 6.70871 1.6134 5.56952
959 1 7.8548 1.18555 4.66591
960 1 7.85466 1.78449 5.57858
961 1 4.39777 1.89239 4.73441
962 1 4.56047 2.54016 5.57984
963 1 5.65907 2.18354 4.74263
964 1 5.60216 2.63176 5.6038
965 1 6.64108 2.29713 4.832
966 1 6.67446 2.77818 5.71367
967 1 7.72791 2.27524 4.87711
968 1 7.80762 3.00715 5.58758
969 1 4.52954 3.04796 4.81127
970 1 4.50015 3.57131 5.79059
971 1 5.58719 3.24274 4.69375
972 1 5.7025 3.76043 5.57786
973 1 6.85675 3.34818 4.68636
974 1 6.70464 3.71099 5.63463
975 1 7.95372 3.48805 4.90421
976 1 7.63487 4.10427 5.73529
977 1 4.50456 13.1889 8.20491
978 1 4.86489 0.236751 6.35223
979 1 5.13029 13.1739 7.29631
980 1 5.6402 13.2051 8.11133
981 1 6.07155 0.550145 6.3274
982 1 6.18238 13.3252 7.09099
983 1 6.6134 13.3257 7.94024
984 1 7.28091 0.647686 6.41839
985 1 7.29281 0.0142123 7.14698
986 1 7.73039 0.094491 7.93158
987 1 8.25253 0.76653 6.3898
988 1 8.3968 0.226133 7.26479
989 1 4.53049 0.870896 8.11664
990 1 4.95012 1.28677 6.396
991 1 5.12091 0.641181 7.20928
992 1 5.54089 0.870946 8.19584
993 1 6.14371 1.53446 6.24453
994 1 6.17747 1.05983 7.22793