data.lammps (converted from cfg to data.lammps)
    
2298  atoms
1  atom types
0.0   13.4375  xlo xhi
0.0   13.4375  ylo yhi
0.0   12.952  zlo zhi
0.0  0.0 0.0 xy xz yz
    
    
    
Atoms
  
1 1 13.3515 0.0248719 1.68879
2 1 0.524492 0.793107 0.329003
3 1 0.0560993 1.27346 1.54389
4 1 1.09546 0.16014 1.57694
5 1 1.74352 0.0901621 0.761513
6 1 1.04111 0.158597 11.1571
7 1 1.06948 0.706577 2.34684
8 1 2.73207 1.41192 0.659895
9 1 2.21132 0.22084 1.55099
10 1 2.78608 0.228567 0.777376
11 1 2.10554 0.859879 2.36173
12 1 2.67359 0.853944 0.0586746
13 1 3.35133 13.3578 2.40477
14 1 3.86038 0.898941 12.9408
15 1 3.37006 1.97637 2.50435
16 1 3.27245 0.559606 1.61015
17 1 12.9608 0.98649 0.812755
18 1 1.05303 2.48805 11.3073
19 1 13.3557 1.73666 2.50676
20 1 0.968223 1.37834 1.61903
21 1 1.55035 1.25288 0.901831
22 1 0.612567 1.66069 12.8846
23 1 1.04034 2.48825 1.65484
24 1 1.61051 1.85936 12.9203
25 1 2.31465 1.3953 1.56116
26 1 2.08163 2.02971 12.0956
27 1 2.21371 1.94168 2.31966
28 1 2.84117 3.26306 3.28798
29 1 3.32299 0.99174 2.48715
30 1 3.87802 1.58877 0.773468
31 1 5.05202 2.04578 3.1399
32 1 5.46484 0.121184 1.65445
33 1 12.8603 2.18479 0.753176
34 1 0.567022 2.8185 0.0801524
35 1 13.3605 2.88883 2.23026
36 1 13.437 2.40353 1.51141
37 1 2.0803 2.58368 1.63142
38 1 1.55867 2.99168 0.14521
39 1 1.14173 3.05848 2.49064
40 1 2.89624 2.60733 0.825498
41 1 3.26327 1.55767 1.53288
42 1 2.67209 3.15413 12.9315
43 1 2.34075 3.10757 2.34625
44 1 3.36052 2.56636 1.66061
45 1 2.67874 2.14581 3.10953
46 1 3.9531 2.67081 0.688105
47 1 2.83942 2.62334 3.98319
48 1 3.91374 2.00567 0.0190463
49 1 0.337156 3.34932 0.910678
50 1 0.960424 3.48601 1.42678
51 1 13.4294 3.82597 2.28997
52 1 1.11513 4.00036 2.24772
53 1 0.625779 2.09165 0.781092
54 1 1.53154 3.99306 12.922
55 1 1.71973 4.18425 3.16945
56 1 1.6662 3.59922 0.831066
57 1 2.11375 3.59171 1.5921
58 1 2.70517 4.17995 12.8535
59 1 2.25508 4.26158 2.31794
60 1 2.77294 3.65274 0.795395
61 1 3.3169 3.74593 1.63603
62 1 4.45691 4.23671 12.1142
63 1 2.82392 4.39774 3.16761
64 1 3.85936 3.91485 0.889514
65 1 0.00366407 0.677059 2.26869
66 1 0.438568 0.654688 3.37475
67 1 1.6496 0.892945 3.10285
68 1 1.57608 0.329927 3.94395
69 1 2.6728 1.05579 3.20247
70 1 2.7835 0.444683 3.94445
71 1 3.98907 1.90792 3.18078
72 1 3.94803 0.843077 3.27239
73 1 0.510114 1.73669 3.17551
74 1 0.619449 1.15737 4.09283
75 1 1.20302 1.89504 2.31615
76 1 1.60326 1.34165 4.02761
77 1 1.5682 1.94726 3.26636
78 1 2.21353 2.01314 5.59959
79 1 3.90893 2.57905 3.88213
80 1 4.5566 2.05266 2.29829
81 1 0.53064 2.87177 3.16132
82 1 0.51011 2.19804 4.01085
83 1 1.7148 2.98648 3.19228
84 1 1.11748 2.49106 4.70689
85 1 1.83071 2.39398 4.06565
86 1 3.45017 2.64298 4.81716
87 1 3.38921 3.09361 2.42897
88 1 4.48802 2.49986 4.89981
89 1 0.640679 4.13118 3.15047
90 1 0.568616 3.3746 3.93436
91 1 1.66503 3.52351 3.92819
92 1 1.04861 3.50551 4.79791
93 1 2.68313 4.8223 4.02104
94 1 2.68839 3.66574 4.14939
95 1 3.78348 4.32213 3.22361
96 1 3.94611 3.18853 3.13354
97 1 4.39877 0.347115 1.6254
98 1 5.0278 0.261451 0.763028
99 1 4.48227 1.34722 1.45652
100 1 5.6418 1.16343 1.60719
101 1 5.51249 0.806638 2.46856
102 1 6.14212 0.859061 0.00941686
103 1 5.10857 13.1578 3.29893
104 1 6.62248 13.3592 1.60488
105 1 6.6912 1.09939 1.71942
106 1 7.289 0.639199 12.8952
107 1 6.7306 0.436231 2.45815
108 1 7.83917 13.3939 1.43581
109 1 7.19002 0.0474896 0.812743
110 1 7.86504 1.15344 11.3944
111 1 7.8097 0.432154 2.41364
112 1 8.55515 13.2988 0.90778
113 1 4.90592 1.00939 0.0630803
114 1 4.40421 2.12838 12.1442
115 1 3.85566 1.48921 4.01648
116 1 5.18963 1.46281 0.786458
117 1 6.22609 1.94599 12.9346
118 1 6.13442 2.37469 0.869389
119 1 5.63303 1.81774 2.41885
120 1 5.12797 1.96849 12.7855
121 1 6.34633 1.32089 0.819013
122 1 6.70588 1.6643 12.1168
123 1 6.78004 1.61289 2.57237
124 1 7.38091 1.17408 0.808681
125 1 7.81283 1.03989 1.70478
126 1 8.4101 1.6374 12.9502
127 1 7.83287 1.55821 2.51831
128 1 7.91466 1.74318 12.1542
129 1 4.40429 2.52167 1.5027
130 1 4.996 3.01668 0.0133031
131 1 4.52287 3.07414 2.44258
132 1 5.02745 2.53025 0.694739
133 1 5.51413 2.31257 1.62492
134 1 6.20999 2.87303 12.782
135 1 5.14447 3.15697 3.256
136 1 6.65346 2.16895 1.73619
137 1 7.74822 2.71947 2.40547
138 1 7.80955 2.8306 12.0072
139 1 6.61093 2.63581 2.59386
140 1 7.29034 1.84141 0.00640532
141 1 7.26302 2.14805 0.931883
142 1 8.38422 2.69388 0.0724785
143 1 7.76479 3.35817 1.64722
144 1 7.79444 2.24389 1.65227
145 1 4.51765 3.66426 1.58749
146 1 5.05789 4.2178 0.017072
147 1 4.42917 4.79496 1.60566
148 1 4.99171 3.70715 0.804349
149 1 5.53496 3.46389 1.62515
150 1 6.16741 4.06198 0.120614
151 1 5.59012 3.98462 2.46127
152 1 6.11041 3.40608 0.805002
153 1 7.25325 3.84968 0.0792081
154 1 6.72477 4.01581 12.1079
155 1 6.66257 3.20764 1.68981
156 1 7.2322 3.22895 0.853449
157 1 7.79645 3.90631 2.40945
158 1 8.33562 3.7417 12.9494
159 1 8.61095 3.80917 3.20986
160 1 8.42678 3.19133 0.96007
161 1 4.97626 0.783038 3.42166
162 1 4.463 13.2749 2.49055
163 1 6.08017 0.678697 3.20219
164 1 6.22871 0.387093 4.03994
165 1 7.27673 0.514304 3.31626
166 1 7.28873 13.398 3.9591
167 1 8.34798 0.455605 3.25142
168 1 8.3931 13.3083 3.97233
169 1 5.08674 1.51263 4.04639
170 1 4.49138 1.47009 4.71466
171 1 6.11112 1.55311 3.38625
172 1 6.17042 2.23656 4.10143
173 1 7.27303 1.68908 3.27512
174 1 7.24093 1.13785 4.17435
175 1 8.42629 1.50922 3.2748
176 1 8.3812 0.91157 4.13011
177 1 5.10384 3.62104 4.03277
178 1 4.97566 2.53726 4.06892
179 1 5.59013 2.97118 2.38023
180 1 6.18845 2.81689 3.37909
181 1 7.27767 2.84841 3.1806
182 1 7.20062 2.27353 4.03982
183 1 8.32551 2.79112 3.26814
184 1 8.37819 2.07562 3.99745
185 1 4.90353 4.224 3.2313
186 1 4.39386 3.70123 4.7209
187 1 6.70908 3.79088 2.30784
188 1 6.16917 3.37663 4.08313
189 1 7.24171 3.91671 3.29534
190 1 7.36683 3.28895 4.07501
191 1 8.50356 4.94986 3.23373
192 1 7.92395 3.27996 4.92585
193 1 8.97368 13.1443 1.77821
194 1 8.9117 0.247833 12.208
195 1 9.02722 0.34613 2.43946
196 1 9.53336 13.1558 0.797492
197 1 10.1192 12.9949 1.70409
198 1 10.5472 0.389954 0.0712875
199 1 10.1009 0.194554 2.48217
200 1 10.5883 13.1433 0.745368
201 1 11.0761 13.088 1.56136
202 1 11.2989 0.245547 12.2749
203 1 11.1787 0.144062 2.49704
204 1 11.7421 13.0139 0.799774
205 1 12.1716 13.3548 1.63584
206 1 11.7158 0.245734 0.11229
207 1 12.3543 0.403249 2.54226
208 1 12.8824 13.3099 0.906707
209 1 8.41471 0.927126 0.746802
210 1 9.9161 1.97643 1.7483
211 1 8.81151 0.964822 1.65727
212 1 9.40515 0.217576 12.9085
213 1 9.55084 0.694191 0.897536
214 1 10.0102 2.42899 12.1949
215 1 10.1414 1.33105 2.41188
216 1 10.6423 0.971374 0.883681
217 1 11.2255 0.641427 1.55059
218 1 11.6904 2.06915 0.863015
219 1 11.1984 1.1205 2.44228
220 1 11.7948 0.971717 0.784873
221 1 12.2955 0.908392 1.60449
222 1 12.3557 0.537144 12.2689
223 1 12.2901 1.46756 2.42812
224 1 0.476324 0.156852 0.850418
225 1 8.8668 2.03621 1.69689
226 1 8.96668 2.5694 12.1841
227 1 9.51308 2.41687 3.21739
228 1 10.2581 2.44346 2.64624
229 1 10.0479 0.731723 1.67994
230 1 10.1093 1.92089 11.3483
231 1 10.0064 2.87267 1.73903
232 1 10.6843 1.97894 0.970903
233 1 11.0745 1.83681 1.80269
234 1 12.1742 2.56533 12.1322
235 1 11.2646 2.57682 2.28602
236 1 11.6038 2.56687 12.8892
237 1 12.273 1.91037 1.59387
238 1 11.7892 3.73498 0.137927
239 1 12.3531 2.59149 2.4525
240 1 12.9979 1.60645 0.123754
241 1 8.89029 2.53386 2.53182
242 1 9.51382 3.54341 12.9152
243 1 8.99463 3.07854 1.68509
244 1 9.47731 2.43676 0.117488
245 1 10.5265 3.01898 0.870348
246 1 10.8171 3.46862 12.9006
247 1 10.0354 4.03333 1.53606
248 1 10.1142 3.02361 11.3251
249 1 11.1444 3.71357 2.4633
250 1 12.2664 3.6034 12.095
251 1 11.1431 4.24907 1.41802
252 1 11.83 4.34301 0.856878
253 1 12.2908 3.21629 1.62399
254 1 12.861 3.27524 0.928758
255 1 12.2881 3.86406 2.43376
256 1 12.7664 2.69259 0.0279726
257 1 9.48769 0.250815 3.20568
258 1 9.4251 13.1916 4.11495
259 1 10.6488 0.316424 3.29648
260 1 10.6501 13.1601 4.03297
261 1 11.8813 0.286424 3.28891
262 1 11.7276 13.1269 4.00429
263 1 13.0068 0.338939 3.23147
264 1 12.8389 13.21 4.1174
265 1 9.01396 1.40998 2.45791
266 1 9.65627 0.732348 4.12901
267 1 10.5301 1.4254 3.25001
268 1 10.7838 0.780007 4.09195
269 1 11.6066 1.53869 3.18244
270 1 11.7746 1.00337 3.92298
271 1 12.7761 1.53044 3.26721
272 1 12.8304 0.94064 4.10533
273 1 9.53331 1.87418 4.05335
274 1 9.43471 1.28233 3.28035
275 1 10.7279 2.31845 3.39862
276 1 10.5574 1.79403 4.31633
277 1 11.7394 2.50109 3.22311
278 1 11.7272 2.01456 4.14972
279 1 12.9059 2.8086 3.21021
280 1 12.9347 2.12444 3.94049
281 1 10.0928 3.58461 2.38722
282 1 9.63871 3.56025 3.2748
283 1 12.9602 3.85684 3.20885
284 1 10.6783 2.97401 4.16281
285 1 10.6095 3.44516 3.26541
286 1 11.6887 3.10858 4.00559
287 1 11.8013 3.65128 3.20701
288 1 12.6948 3.20353 4.09715
289 1 0.0412606 4.31459 1.57052
290 1 0.506936 5.1554 12.9404
291 1 0.00938385 4.91497 2.33962
292 1 0.537347 4.55492 0.697574
293 1 1.15616 4.68736 1.60596
294 1 1.73676 5.2166 0.0170216
295 1 1.02532 5.19398 2.34017
296 1 1.52739 4.65882 0.811423
297 1 2.38422 4.8563 1.55576
298 1 2.83369 5.38571 12.8814
299 1 2.21994 5.16747 2.45315
300 1 2.79621 4.77997 0.730583
301 1 3.39531 5.04631 1.59126
302 1 3.96754 5.32822 12.8739
303 1 3.40286 5.45689 2.43564
304 1 3.9926 4.23895 12.9328
305 1 0.0319947 5.56806 1.47154
306 1 0.60516 6.28535 12.9442
307 1 13.3351 6.03586 2.28368
308 1 0.653495 5.78564 0.772536
309 1 1.22825 5.83704 1.65642
310 1 1.76827 6.32402 0.0749982
311 1 0.961653 6.27039 2.50196
312 1 1.75236 5.68602 0.858488
313 1 2.24073 5.84553 1.73501
314 1 2.8471 6.47143 0.016978
315 1 2.26476 6.4478 2.40033
316 1 2.70405 5.92879 0.77088
317 1 3.24353 6.14934 1.47159
318 1 3.89139 6.58841 12.896
319 1 3.42465 6.52837 2.49518
320 1 3.86573 6.00893 0.767787
321 1 13.3836 6.62764 1.66196
322 1 0.72484 7.28268 12.9284
323 1 0.0211716 7.2769 2.47698
324 1 0.590256 6.81731 0.926826
325 1 1.0981 6.86289 1.75988
326 1 1.64025 7.44458 0.0862905
327 1 0.973953 7.44018 2.57062
328 1 1.71832 6.84528 0.848005
329 1 2.17464 7.09626 1.56158
330 1 2.81974 7.52104 12.89
331 1 2.16231 7.48981 2.55038
332 1 2.86122 7.07339 0.901265
333 1 3.38078 7.16697 1.78999
334 1 3.98282 7.66471 12.8924
335 1 3.43059 7.71206 2.39897
336 1 3.877 7.17103 0.798605
337 1 13.3548 7.83386 1.51923
338 1 0.568655 8.25623 12.9383
339 1 0.137624 8.28896 2.43031
340 1 0.716748 7.86583 0.970136
341 1 1.23835 7.97757 1.67613
342 1 1.79348 8.65515 12.8882
343 1 1.20158 8.52299 2.46675
344 1 1.80355 8.05996 0.672847
345 1 2.26476 8.10538 1.67809
346 1 2.88417 8.75299 0.0628976
347 1 2.28263 8.68384 2.37044
348 1 2.86689 8.13958 0.728854
349 1 3.33836 8.29603 1.56704
350 1 4.0126 8.83365 12.8854
351 1 2.8135 9.78552 3.22847
352 1 3.98031 8.25601 0.80141
353 1 0.541354 5.18077 3.12938
354 1 0.491081 4.53065 3.96035
355 1 1.59437 5.22966 3.21562
356 1 1.76174 4.63883 4.06198
357 1 2.83718 5.5721 3.13015
358 1 3.33519 4.91915 4.80843
359 1 3.45325 4.26508 2.28121
360 1 3.88134 5.26976 3.22321
361 1 0.55891 6.50939 3.33022
362 1 0.657569 5.63921 3.90257
363 1 1.74796 6.36146 3.16823
364 1 1.67085 5.66444 4.06256
365 1 2.90525 6.60759 3.29412
366 1 2.7246 5.81349 3.98608
367 1 3.93962 6.53624 3.31483
368 1 3.86355 5.96792 3.97414
369 1 0.743216 6.69565 4.18786
370 1 1.26876 6.77792 4.99257
371 1 1.65612 7.50918 3.27261
372 1 1.86116 6.85738 3.98302
373 1 2.84551 7.63693 3.10156
374 1 2.84417 7.12777 3.99258
375 1 5.0403 7.42598 3.29652
376 1 3.36682 7.05993 4.75955
377 1 0.577829 8.42238 3.42503
378 1 0.628204 7.63767 3.81034
379 1 1.75785 8.50242 3.15336
380 1 1.67748 8.03862 4.16738
381 1 3.91437 8.71453 3.26028
382 1 2.84836 8.21676 3.97994
383 1 3.92571 7.65905 3.28885
384 1 4.13555 8.18062 4.1479
385 1 3.81238 4.96284 0.713255
386 1 5.09922 5.26953 12.8647
387 1 4.5027 5.42911 2.39479
388 1 4.92591 4.74915 0.84148
389 1 5.49571 5.19468 2.4284
390 1 6.11776 4.53446 0.97655
391 1 5.99717 5.01806 3.20787
392 1 5.58987 4.64052 1.71926
393 1 6.73291 4.41176 1.64962
394 1 6.78953 5.14272 12.2362
395 1 6.70003 4.88872 2.54815
396 1 7.31521 4.42044 0.90819
397 1 7.94128 4.53334 1.69123
398 1 8.29866 4.84185 12.8843
399 1 7.85867 4.9608 2.55464
400 1 8.39601 4.23815 0.787234
401 1 4.45237 6.06557 1.60461
402 1 5.00603 6.39141 0.0768862
403 1 4.39848 6.57297 2.40982
404 1 4.96504 5.73439 0.865745
405 1 5.54024 5.75052 1.67061
406 1 6.1376 6.21729 0.0415046
407 1 6.17371 6.1653 3.19886
408 1 6.10081 5.70442 0.942459
409 1 6.63679 5.49869 1.73107
410 1 7.17347 5.62732 0.847194
411 1 6.77718 6.17163 2.36768
412 1 7.1419 4.87171 0.151643
413 1 7.73594 5.57756 1.72003
414 1 8.3742 5.90347 0.0624757
415 1 7.92497 6.0729 2.41148
416 1 8.19387 5.41682 0.801751
417 1 4.49472 7.10536 1.45385
418 1 5.11079 7.5961 12.9304
419 1 4.62011 7.64752 2.47375
420 1 5.00468 6.91421 0.711102
421 1 5.61812 6.35136 2.45894
422 1 6.19348 7.35793 12.8833
423 1 5.50095 6.83841 1.64571
424 1 6.16773 6.73063 0.769335
425 1 6.62461 6.67442 1.60784
426 1 7.26335 7.31443 0.158832
427 1 6.59121 7.24328 2.42881
428 1 7.25296 6.73631 0.84732
429 1 7.85593 6.73393 1.53549
430 1 8.43871 6.5457 0.83695
431 1 7.75052 7.09953 2.41766
432 1 8.99485 6.3325 1.62314
433 1 4.45179 8.33437 1.64243
434 1 5.11875 8.70351 12.9098
435 1 4.49148 8.76734 2.44659
436 1 5.01987 8.12 0.752831
437 1 5.60806 7.49041 2.43274
438 1 6.24529 8.45314 0.148025
439 1 5.57542 7.94023 1.61618
440 1 6.15736 7.79128 0.901795
441 1 6.76534 7.80919 1.67155
442 1 7.34131 8.34467 12.9453
443 1 6.79487 8.43542 2.44275
444 1 7.34233 7.91492 0.878372
445 1 7.92162 7.72304 1.72302
446 1 8.38085 7.69024 0.817959
447 1 7.85312 8.87167 1.66841
448 1 8.36185 7.05393 0.0658886
449 1 4.94164 5.28891 3.31436
450 1 4.46235 4.25183 2.38387
451 1 6.12128 5.64186 4.01965
452 1 6.16835 4.04243 3.23826
453 1 7.17208 5.13368 3.24698
454 1 7.405 4.41989 3.89051
455 1 8.37284 5.35345 3.95197
456 1 8.40774 3.16759 4.06574
457 1 5.08247 5.8916 4.05668
458 1 4.53471 5.34428 5.85904
459 1 6.17788 6.76665 3.99674
460 1 6.12585 7.40725 3.23374
461 1 7.26079 6.13695 3.28823
462 1 8.52593 5.84264 6.45732
463 1 8.27421 6.08634 3.25988
464 1 7.75646 5.93782 5.87609
465 1 5.22716 8.06223 4.08497
466 1 4.93932 6.35724 3.20098
467 1 6.20917 8.36562 3.30635
468 1 5.08732 6.90718 4.03373
469 1 6.29793 7.90362 4.12565
470 1 7.31341 7.29594 3.20596
471 1 8.58443 7.22412 3.22132
472 1 8.35967 6.63323 3.9788
473 1 5.03617 8.5884 3.22379
474 1 4.51448 8.17298 4.93531
475 1 5.63352 8.01515 4.86607
476 1 6.89865 7.81274 4.86883
477 1 7.29674 8.39844 3.30117
478 1 6.71806 8.92714 4.86793
479 1 7.92802 8.35168 2.45703
480 1 8.44777 7.5717 4.09555
481 1 8.92367 3.68518 2.37387
482 1 9.40497 4.76904 12.912
483 1 9.47986 4.08732 0.728765
484 1 9.58055 4.69616 3.27508
485 1 11.1494 3.20334 1.63801
486 1 10.0454 4.50656 12.1488
487 1 10.0471 6.35789 1.72942
488 1 10.5694 4.60527 0.0179965
489 1 10.5901 3.95357 0.65861
490 1 12.3787 4.72413 12.1877
491 1 11.2507 4.64767 2.40956
492 1 11.7129 4.79259 12.8101
493 1 12.3829 4.21049 1.61559
494 1 12.8834 5.01039 0.0291145
495 1 12.304 4.93705 2.25436
496 1 12.8892 4.3138 0.693315
497 1 8.9102 5.37339 1.45917
498 1 9.55465 5.7957 0.103007
499 1 9.55357 5.94483 3.21286
500 1 8.95822 4.32765 1.63694
501 1 9.53428 5.14572 0.915007
502 1 10.5761 5.84417 12.9179
503 1 10.6166 5.96829 3.24739
504 1 10.1858 5.16623 1.60881
505 1 10.6035 5.32312 0.732438
506 1 11.1754 5.76881 12.1767
507 1 11.1723 5.29085 1.76049
508 1 11.7014 5.30378 0.729744
509 1 12.2278 5.56209 1.68192
510 1 12.9669 6.0082 12.8465
511 1 12.9742 5.99409 3.24932
512 1 12.8363 5.3962 0.858832
513 1 8.91089 5.88173 2.47725
514 1 9.60429 6.91105 12.9288
515 1 9.02758 6.958 2.38717
516 1 9.53215 6.41572 0.783332
517 1 10.119 5.77026 2.39962
518 1 10.7566 6.84106 12.9208
519 1 10.1864 6.97789 2.38607
520 1 10.6553 6.27413 0.988788
521 1 11.2535 6.3389 1.59571
522 1 11.8798 7.07343 0.0613908
523 1 11.3097 6.96886 2.42152
524 1 13.0275 6.57946 0.782297
525 1 12.2428 6.62004 1.51009
526 1 12.3245 7.14014 12.1691
527 1 12.313 6.0879 2.46072
528 1 13.0393 7.18646 0.0927137
529 1 9.02106 7.44046 1.57252
530 1 10.1619 8.13239 12.2443
531 1 8.49108 8.23568 3.18404
532 1 9.51605 7.39486 0.727443
533 1 10.1893 7.52399 1.57213
534 1 10.7258 7.92882 0.0371655
535 1 10.119 8.13426 2.55153
536 1 10.7537 7.33287 0.735999
537 1 11.1914 7.48899 1.69321
538 1 11.8001 7.60431 0.965101
539 1 11.1992 8.09998 2.4034
540 1 11.8687 6.37928 0.663228
541 1 12.4647 7.62952 1.5826
542 1 12.9166 8.45938 0.0184914
543 1 12.8935 8.35151 3.15269
544 1 12.9 7.85774 0.674944
545 1 9.06652 4.89761 2.38463
546 1 9.53405 3.0063 4.04495
547 1 10.1684 4.62847 2.50177
548 1 10.7167 4.24544 3.936
549 1 11.8733 4.84838 3.23823
550 1 11.868 4.21736 4.03886
551 1 12.8752 4.95591 3.11589
552 1 12.9702 4.39267 3.93923
553 1 9.55727 6.49159 4.15566
554 1 9.4908 5.37352 3.91595
555 1 10.8044 4.75718 3.2166
556 1 10.6109 5.29662 4.04984
557 1 11.189 5.87837 2.60023
558 1 11.7577 5.3798 4.08277
559 1 11.9261 5.82474 3.24981
560 1 12.9282 5.46299 4.13763
561 1 9.73641 7.97921 3.32729
562 1 9.61837 6.88171 3.22494
563 1 10.6198 7.04677 3.3235
564 1 10.9004 6.46106 4.10525
565 1 11.645 6.97725 3.36488
566 1 11.9884 6.43189 3.99227
567 1 12.3371 7.11509 2.55878
568 1 12.9802 7.09329 3.25036
569 1 9.20774 8.04851 2.3426
570 1 8.97758 7.53156 4.93185
571 1 10.8991 8.09523 3.36673
572 1 10.6593 7.64805 4.22626
573 1 12.3584 8.24103 2.36452
574 1 11.8251 8.8073 4.13775
575 1 13.071 7.64642 3.87796
576 1 12.346 7.50882 4.83353
577 1 0.0562715 8.88561 1.58886
578 1 0.0453826 9.61632 12.0709
579 1 0.634787 9.66406 3.23602
580 1 0.739306 8.97337 0.730419
581 1 1.09607 9.12912 1.54293
582 1 1.6561 9.75381 0.0100293
583 1 1.18374 9.6886 2.42437
584 1 1.76746 9.11025 0.884123
585 1 2.22873 9.28917 1.63629
586 1 2.9177 9.88796 0.0165568
587 1 2.26961 9.8631 2.41498
588 1 2.83112 9.38869 0.812564
589 1 3.41708 9.36017 1.52042
590 1 3.99392 9.92781 0.030005
591 1 3.33396 8.79316 2.48162
592 1 4.0372 9.23972 0.809418
593 1 0.0615209 9.33869 2.52842
594 1 0.527974 10.1929 0.730188
595 1 0.146733 10.6661 2.3726
596 1 0.596312 9.49719 0.00795623
597 1 1.09971 10.2017 1.46632
598 1 1.73533 10.8019 12.8654
599 1 1.25864 10.8262 2.34019
600 1 1.67982 10.2482 0.752703
601 1 2.32216 10.4455 1.5419
602 1 2.81858 11.0868 12.9269
603 1 2.88686 10.9064 3.14916
604 1 2.86895 10.3942 0.736973
605 1 3.44753 10.4761 1.68362
606 1 4.01726 11.0681 12.9194
607 1 3.41354 11.0596 2.37518
608 1 3.8777 10.4997 0.874716
609 1 13.3608 11.2509 1.60732
610 1 0.528377 12.4117 0.631031
611 1 0.0539017 11.7975 2.46297
612 1 0.61341 10.7487 12.8578
613 1 0.495009 11.2909 0.89418
614 1 2.80024 12.2071 12.9007
615 1 1.08021 11.9164 2.3619
616 1 1.19943 11.3979 1.57478
617 1 2.2736 10.9311 2.45389
618 1 2.8561 12.5964 0.862323
619 1 2.32106 11.4353 1.55245
620 1 1.66268 11.376 0.64283
621 1 3.41083 11.5769 1.62794
622 1 3.91338 12.1268 0.0196784
623 1 3.23865 12.2073 2.45324
624 1 3.87951 11.5735 0.794717
625 1 0.0607096 12.3694 1.53327
626 1 0.127995 12.8878 12.3185
627 1 13.4357 12.864 2.52545
628 1 0.699144 13.0766 0.0548376
629 1 1.02428 12.5667 1.50581
630 1 1.59311 0.798501 12.9255
631 1 1.01579 12.9851 2.44203
632 1 1.68768 12.399 0.738289
633 1 2.12298 12.5355 1.52716
634 1 1.72059 13.0505 12.8525
635 1 2.08619 13.1441 2.33313
636 1 2.76475 13.209 12.7993
637 1 3.32004 12.7947 1.59964
638 1 3.93089 0.373763 0.808154
639 1 3.96467 13.1791 3.1926
640 1 3.97067 12.8024 0.774679
641 1 0.578342 10.2106 4.00245
642 1 0.578807 9.09283 3.86198
643 1 1.73586 9.75432 3.19181
644 1 1.71055 9.04002 4.01338
645 1 2.81532 8.74017 3.27898
646 1 2.88248 9.45045 4.12173
647 1 3.35755 9.7759 2.40371
648 1 3.96155 9.968 3.2653
649 1 0.579309 10.7151 3.13618
650 1 0.0356645 10.0128 4.74805
651 1 1.68092 10.9703 3.19822
652 1 1.78013 10.3832 3.84848
653 1 2.68982 10.5386 4.01421
654 1 3.95081 10.4721 4.06701
655 1 3.9003 11.0709 3.27357
656 1 4.36457 10.297 4.86897
657 1 0.573221 11.7707 3.24468
658 1 0.563468 11.2164 4.14262
659 1 2.23041 12.0831 2.3358
660 1 1.58889 12.0823 3.10835
661 1 2.75166 12.1177 3.24793
662 1 2.72167 11.6837 4.04944
663 1 3.97722 12.1403 3.13084
664 1 3.94657 11.6066 4.00629
665 1 0.599662 0.045326 4.08427
666 1 0.696487 13.0157 3.22743
667 1 1.76911 13.2817 3.22637
668 1 1.68418 12.5924 3.91702
669 1 2.75044 13.305 3.09093
670 1 2.8206 12.8338 3.96282
671 1 3.84267 0.310508 4.12934
672 1 3.72977 12.6786 4.01831
673 1 4.45067 9.46181 1.78208
674 1 5.13243 9.7296 12.8863
675 1 4.52591 9.98635 2.52416
676 1 5.08972 9.31203 0.772361
677 1 5.51197 9.07483 1.53502
678 1 6.16823 10.8389 0.0293532
679 1 5.56044 9.67159 2.3322
680 1 6.21889 9.04419 0.84142
681 1 6.69908 8.91848 1.54552
682 1 7.34545 9.40593 0.0129707
683 1 6.67504 9.59437 2.44134
684 1 7.43356 8.96389 0.812597
685 1 8.5649 8.76415 0.856173
686 1 8.5326 9.26014 12.8618
687 1 7.91971 9.99268 1.65454
688 1 8.48026 8.24129 0.0485291
689 1 4.56207 10.4928 1.65414
690 1 5.16431 10.8383 0.117509
691 1 4.53612 11.0455 2.4037
692 1 4.94523 10.3015 0.841199
693 1 5.66651 10.2574 1.538
694 1 5.729 10.7987 12.1998
695 1 5.6745 10.8327 2.34712
696 1 6.26861 9.59847 0.0326012
697 1 6.24709 10.1835 0.720037
698 1 7.26744 10.5957 12.8568
699 1 6.79146 10.7767 2.39688
700 1 6.69385 10.0218 1.64717
701 1 7.28764 10.1133 0.815501
702 1 8.43519 10.3491 0.0896346
703 1 7.90907 10.5759 2.49752
704 1 8.40586 9.82574 0.826365
705 1 4.47852 11.6435 1.56357
706 1 5.1071 12.1285 0.168073
707 1 4.59169 12.0456 2.44395
708 1 5.00873 11.39 0.822651
709 1 5.62913 11.4581 1.5986
710 1 6.31623 12.0174 12.9316
711 1 5.57168 12.5849 1.65777
712 1 6.23612 11.3907 0.689506
713 1 6.74536 11.1739 1.56209
714 1 7.37794 11.6546 12.8925
715 1 6.746 11.855 2.34953
716 1 7.31109 11.1533 0.822267
717 1 7.91084 11.0407 1.51555
718 1 8.53615 11.5788 0.0197291
719 1 7.79957 11.6119 2.39016
720 1 8.48536 10.9835 0.783407
721 1 4.43894 12.7076 1.76722
722 1 5.67834 13.0775 12.142
723 1 4.50987 0.995594 2.41148
724 1 5.14967 13.3206 0.00256827
725 1 4.92194 12.5973 0.807393
726 1 6.13361 0.168478 0.806138
727 1 5.60918 13.0999 2.50869
728 1 5.98587 12.4556 0.868359
729 1 6.71098 12.3619 1.46658
730 1 7.35835 12.8927 0.0726317
731 1 6.67269 12.9029 2.47006
732 1 7.418 12.2369 0.879344
733 1 7.92086 12.1723 1.70924
734 1 8.32008 12.775 12.9253
735 1 7.83826 12.8538 2.3863
736 1 8.44066 12.1739 0.791603
737 1 5.08402 9.70488 3.24224
738 1 5.1262 9.20888 4.02065
739 1 6.21362 9.43181 3.2513
740 1 6.15028 9.07117 4.10031
741 1 7.72444 9.46317 2.37562
742 1 7.3186 8.95179 4.13695
743 1 8.38079 9.26748 3.22365
744 1 8.99997 8.58154 4.8831
745 1 4.98436 10.8515 3.23541
746 1 5.02184 10.3875 4.09734
747 1 6.05347 10.5864 3.05991
748 1 6.13337 10.192 4.02428
749 1 7.39608 10.5493 3.19247
750 1 7.24926 10.0728 4.01139
751 1 8.49661 10.3757 3.21014
752 1 8.39305 9.81912 4.03328
753 1 5.74944 11.908 2.36435
754 1 5.16355 12.0311 3.1863
755 1 6.14095 11.8114 3.36562
756 1 6.14266 11.1893 3.96049
757 1 7.22302 11.6969 3.30406
758 1 7.20972 11.1717 4.03823
759 1 8.25526 11.5713 3.26802
760 1 8.45685 10.9823 3.95686
761 1 4.99528 0.187231 4.16578
762 1 4.89439 12.5609 3.99319
763 1 6.17633 12.9451 3.31797
764 1 6.22984 12.5253 4.12092
765 1 7.32571 12.7166 3.13997
766 1 7.27981 12.3602 4.06076
767 1 8.4178 12.768 3.21825
768 1 8.44853 12.1351 3.9958
769 1 8.87102 8.67137 1.68081
770 1 9.63485 8.61868 0.934914
771 1 8.96597 9.30055 2.3632
772 1 9.57167 9.23327 12.9481
773 1 10.1611 8.51309 1.56923
774 1 10.1248 9.09826 12.0847
775 1 10.0505 9.15067 2.51111
776 1 10.7876 8.5662 0.713554
777 1 11.265 8.6811 1.61005
778 1 11.8476 9.21172 0.102928
779 1 11.2231 9.27069 2.57029
780 1 11.835 8.62384 0.833882
781 1 12.262 8.8043 1.7577
782 1 12.9532 9.44726 12.8821
783 1 12.4139 9.4888 2.51731
784 1 12.9895 8.97169 0.972304
785 1 9.02317 9.9497 1.76455
786 1 9.6039 10.2087 12.8747
787 1 9.00179 10.5285 2.53504
788 1 9.44186 9.76054 0.876761
789 1 10.0204 9.54456 1.60245
790 1 11.1898 9.65941 1.46342
791 1 10.0982 10.2394 2.34976
792 1 10.6367 9.20392 0.0187606
793 1 11.8422 9.82516 0.83049
794 1 11.8427 10.43 0.044957
795 1 11.7014 10.4468 3.26081
796 1 12.9274 9.9418 0.837199
797 1 12.4527 9.88414 1.6606
798 1 12.9415 10.4615 0.0913441
799 1 12.2983 10.5203 2.46078
800 1 0.0618062 10.0447 1.77327
801 1 9.0099 10.9997 1.66402
802 1 9.59416 11.3855 0.125826
803 1 9.00177 11.4796 2.51727
804 1 9.59661 10.8031 0.786992
805 1 10.1384 10.848 1.59667
806 1 10.7913 11.52 0.0650335
807 1 10.2007 11.4498 2.51673
808 1 10.6091 9.73103 0.806025
809 1 10.6587 10.8952 0.813975
810 1 11.7323 10.9378 0.865287
811 1 11.237 11.4147 2.36149
812 1 11.2087 10.7375 1.65261
813 1 12.3834 10.9426 1.57214
814 1 12.9024 11.6496 12.9087
815 1 12.3854 11.6231 2.37202
816 1 12.9232 11.1018 0.825923
817 1 8.89601 12.0098 1.48812
818 1 9.45729 12.4758 12.9394
819 1 8.98392 12.4841 2.49102
820 1 9.75001 12.1082 0.82595
821 1 10.0332 11.953 1.76696
822 1 10.6617 12.5844 12.9409
823 1 10.1627 12.5501 2.53802
824 1 10.785 12.0214 0.861756
825 1 11.1679 12.025 1.72833
826 1 0.00933183 12.5779 11.3288
827 1 11.2479 12.5905 2.50698
828 1 11.9135 11.8599 1.00831
829 1 12.3113 12.252 1.68515
830 1 11.751 12.5172 0.0759011
831 1 12.3964 12.796 2.38589
832 1 12.8968 12.1905 0.813674
833 1 9.45711 9.2616 3.26442
834 1 10.1038 8.67649 4.86406
835 1 10.6487 9.12121 3.29623
836 1 10.6844 8.69176 4.12476
837 1 11.2114 10.2083 2.33288
838 1 11.9379 7.99206 3.2467
839 1 12.8957 9.43803 3.29758
840 1 12.9126 8.80761 4.05815
841 1 9.58118 10.2244 3.2485
842 1 9.48553 9.73836 4.17505
843 1 10.5593 10.2823 3.18503
844 1 10.6923 9.81444 4.04473
845 1 11.8166 9.9057 3.87006
846 1 11.7885 9.11417 3.23318
847 1 12.9832 10.5411 3.14445
848 1 12.8982 9.98995 4.12758
849 1 9.46277 11.4253 3.24123
850 1 9.60463 10.805 4.00631
851 1 10.6275 11.4978 3.36167
852 1 10.7147 10.8734 4.0168
853 1 11.7245 11.5343 3.26155
854 1 11.8928 10.9791 4.1921
855 1 12.8447 11.5512 3.1353
856 1 12.9214 11.0003 3.97506
857 1 9.46438 12.6067 3.41746
858 1 9.47889 11.9409 3.98805
859 1 10.5152 12.5785 3.41096
860 1 10.6865 11.9681 4.20985
861 1 11.7416 12.5074 3.22761
862 1 11.7467 12.035 4.13086
863 1 12.8227 12.7166 3.28129
864 1 13.0124 12.1076 4.04584
865 1 13.3856 13.4364 4.78462
866 1 13.4111 0.593509 5.62748
867 1 1.10037 0.125502 4.98109
868 1 1.05392 0.799533 5.5359
869 1 2.24254 13.1514 5.62811
870 1 2.14972 0.308473 4.70247
871 1 3.27339 0.362826 4.94389
872 1 3.38852 1.03786 5.59355
873 1 13.4334 1.16129 4.84596
874 1 0.0618007 1.72082 5.69457
875 1 1.09519 1.54453 4.92624
876 1 0.667474 1.71876 6.53744
877 1 2.14684 0.821258 5.63749
878 1 1.70973 1.82677 6.53614
879 1 2.7737 1.52839 3.96365
880 1 3.41733 2.0259 5.64861
881 1 13.4113 2.22791 4.83646
882 1 0.0101205 2.85353 5.45638
883 1 1.12976 1.92062 5.73958
884 1 1.8008 2.93558 6.26468
885 1 2.17326 1.44059 4.91295
886 1 2.25203 2.53782 4.90755
887 1 3.2116 3.15957 5.63112
888 1 3.85895 3.28013 6.27259
889 1 13.3617 3.40917 4.62586
890 1 0.184626 3.9528 5.58909
891 1 1.21362 2.87575 5.59589
892 1 1.15152 4.08769 5.62693
893 1 2.16341 3.60083 5.02855
894 1 2.30618 4.11163 5.80876
895 1 3.30151 3.82755 4.8244
896 1 3.48233 4.32835 5.70525
897 1 13.3542 13.2758 8.03113
898 1 0.47794 0.665066 6.38618
899 1 0.468958 0.0615022 7.31465
900 1 1.26949 0.148824 8.06955
901 1 1.64158 0.167908 7.22288
902 1 1.58071 0.752667 6.42231
903 1 2.30729 0.267749 8.16647
904 1 2.77986 0.375851 7.22955
905 1 3.34453 0.522742 8.04159
906 1 3.43819 1.04655 9.03626
907 1 3.83749 0.869633 6.3565
908 1 3.79849 0.377457 7.33452
909 1 13.4264 1.03212 8.09201
910 1 0.5421 2.15653 7.25186
911 1 0.509461 1.09254 7.36627
912 1 2.30418 1.39141 8.11155
913 1 1.75996 1.22839 7.30423
914 1 2.1586 0.879947 8.84632
915 1 2.81982 1.48711 7.16362
916 1 2.77556 2.18273 6.37978
917 1 2.70238 0.902383 6.37869
918 1 2.75062 0.901206 9.55193
919 1 3.99005 2.8416 7.1455
920 1 3.91889 1.46266 7.01557
921 1 13.3921 2.24201 8.20675
922 1 1.04446 2.38322 8.14573
923 1 1.07021 3.01001 8.87059
924 1 1.23656 1.29101 8.00405
925 1 1.82767 3.45957 7.34
926 1 1.67785 2.50404 7.32609
927 1 2.18048 2.42142 8.09035
928 1 2.68886 3.16661 6.42353
929 1 2.89312 2.5622 7.27709
930 1 3.30579 2.11551 8.84703
931 1 3.29645 3.06394 8.91805
932 1 3.23121 2.72875 8.01729
933 1 13.3986 3.26912 7.88357
934 1 0.634837 4.04768 6.55533
935 1 0.578034 2.94281 6.37886
936 1 0.642611 3.34844 7.25695
937 1 1.61575 3.99938 6.51723
938 1 2.2923 3.67118 8.125
939 1 2.88506 3.63668 7.24661
940 1 2.86333 4.36979 6.46127
941 1 3.32743 3.75515 8.22841
942 1 3.30149 4.37216 8.95988
943 1 4.44783 4.27494 5.50482
944 1 3.95007 2.21865 6.55704
945 1 4.34037 0.388485 4.79771
946 1 4.59768 1.02059 5.62092
947 1 5.64474 0.161661 4.76891
948 1 5.67666 0.679216 5.6349
949 1 6.7399 13.4287 4.88871
950 1 6.82448 0.735082 5.62571
951 1 7.78018 13.3268 4.91361
952 1 8.43143 0.32021 6.50822
953 1 3.3465 1.50335 4.74293
954 1 3.84484 3.74158 3.97097
955 1 5.61209 1.19895 4.83007
956 1 5.66916 1.96761 5.61235
957 1 6.46083 1.30149 4.52341
958 1 6.72331 2.88711 5.78983
959 1 7.73686 1.02194 4.89334
960 1 7.79496 1.6632 5.6909
961 1 4.4742 1.93487 5.67838
962 1 5.00093 3.62896 7.25202
963 1 5.60234 2.49655 4.94304
964 1 5.06728 3.10404 6.34987
965 1 6.82344 2.26461 4.95673
966 1 6.75334 3.91491 5.78243
967 1 7.91387 2.19864 4.89697
968 1 7.80619 2.83965 5.67861
969 1 5.52011 3.6579 4.96701
970 1 4.08574 4.4001 6.45258
971 1 5.10425 4.65247 4.10068
972 1 5.71936 4.67917 4.9111
973 1 6.71522 3.45849 4.79341
974 1 6.92133 4.52223 4.84446
975 1 7.88246 3.90905 5.74873
976 1 8.32248 3.72454 6.67761
977 1 4.50393 0.461109 8.15793
978 1 5.07727 1.05795 6.48938
979 1 5.01412 0.498977 7.14825
980 1 5.51002 0.178458 7.9954
981 1 6.15369 0.760455 6.43611
982 1 6.13787 0.178701 7.32421
983 1 6.81528 13.0078 8.95846
984 1 7.95949 0.490134 5.69174
985 1 6.52553 13.3555 8.0369
986 1 7.86349 13.3664 8.16163
987 1 8.29032 13.1427 7.28215
988 1 8.4436 12.6173 6.39526
989 1 4.29506 1.47168 7.94636
990 1 5.01122 2.10305 6.46379
991 1 5.04792 1.57086 7.50738
992 1 5.59309 1.31366 8.15086