data.lammps (converted from cfg to data.lammps)
    
2298  atoms
1  atom types
0.0   13.4375  xlo xhi
0.0   13.4375  ylo yhi
0.0   12.952  zlo zhi
0.0  0.0 0.0 xy xz yz
    
    
    
Atoms
  
1 1 0.102089 13.0765 1.72026
2 1 0.55441 0.27566 0.0644892
3 1 0.0837605 1.21074 2.56167
4 1 1.3179 13.0736 1.61514
5 1 1.7591 13.361 0.84941
6 1 1.24383 13.1092 11.4703
7 1 1.19642 0.310303 2.32523
8 1 2.91709 1.20381 0.836019
9 1 2.44114 13.3582 1.68605
10 1 2.86783 0.0874134 0.78461
11 1 2.27012 0.42634 2.36551
12 1 2.89102 0.544997 0.0623859
13 1 3.3882 13.0596 2.48377
14 1 4.00147 0.643736 0.0855043
15 1 3.41502 1.79442 2.43596
16 1 3.42924 0.086142 1.60537
17 1 12.8576 0.73958 0.863269
18 1 1.08601 1.96631 11.2119
19 1 0.0299148 0.84513 1.63272
20 1 0.614478 0.761883 0.892126
21 1 1.73825 0.891996 0.844978
22 1 0.528928 2.6004 12.8994
23 1 1.03927 2.01604 1.643
24 1 1.8354 1.47745 0.159488
25 1 2.33475 1.11333 1.65497
26 1 2.1713 1.60284 11.9611
27 1 2.23994 1.65269 2.33544
28 1 2.90411 2.76767 3.2442
29 1 3.45833 0.670261 2.58843
30 1 3.97965 1.22424 0.780482
31 1 5.2187 2.12915 3.14034
32 1 5.60717 0.365828 1.58038
33 1 12.8257 2.43545 12.938
34 1 0.526608 1.95216 0.816561
35 1 0.0142786 2.46539 2.2805
36 1 12.7913 1.89506 0.749508
37 1 2.2414 2.18494 1.57468
38 1 1.61297 2.55261 0.00187406
39 1 1.22507 2.58391 2.44001
40 1 2.94042 2.29433 0.849123
41 1 3.42357 1.22249 1.63237
42 1 2.74855 2.63356 0.0198188
43 1 2.25718 2.67752 2.37351
44 1 3.44316 2.39804 1.66185
45 1 2.91325 1.84661 3.17701
46 1 3.96471 2.44807 0.720705
47 1 2.67078 2.23763 4.15466
48 1 4.02625 1.84411 0.0543502
49 1 0.0498852 3.16063 1.57329
50 1 1.11816 3.14708 1.62823
51 1 0.113272 3.69332 2.36967
52 1 1.18902 3.72525 2.3716
53 1 0.699688 1.37452 0.102687
54 1 1.53648 3.62502 12.8676
55 1 1.71059 3.80121 3.21605
56 1 1.756 3.27993 0.783201
57 1 2.25312 3.31066 1.62923
58 1 2.89346 3.85582 12.8709
59 1 2.32121 3.78137 2.53188
60 1 2.71201 3.33489 0.672627
61 1 3.2888 3.48803 1.54054
62 1 4.33775 4.29453 12.1636
63 1 2.82679 3.89725 3.34216
64 1 3.93074 3.42637 0.817475
65 1 0.0739154 0.186921 2.44746
66 1 0.590034 0.328347 3.31545
67 1 1.60364 0.316262 3.20917
68 1 1.63659 13.328 4.08875
69 1 2.84277 0.730003 3.18433
70 1 2.70711 13.4217 3.93253
71 1 3.98536 1.83556 3.19576
72 1 4.00635 0.656765 3.31538
73 1 0.751176 1.33049 3.32116
74 1 0.516468 0.808999 4.20195
75 1 1.10216 0.867917 1.63614
76 1 1.66659 0.937925 4.05477
77 1 1.16739 1.50833 2.42144
78 1 2.19242 2.20462 4.9022
79 1 4.50383 2.47171 4.94181
80 1 4.58497 1.97972 2.4801
81 1 0.518326 2.43424 3.08365
82 1 0.555642 1.96261 4.10102
83 1 1.7845 2.64427 3.25493
84 1 1.17295 1.95904 4.8662
85 1 1.79153 1.41819 3.20175
86 1 3.85987 2.53887 4.16556
87 1 3.42197 2.93193 2.44235
88 1 4.50022 3.18872 5.6154
89 1 0.695724 3.46674 3.14592
90 1 0.603001 2.99562 4.06824
91 1 1.74618 3.20553 4.06241
92 1 1.10819 3.09095 4.85569
93 1 2.77406 4.53377 3.96142
94 1 2.81362 3.30438 4.0984
95 1 3.94591 4.00283 3.33186
96 1 4.01199 2.95289 3.24173
97 1 4.42943 0.366566 1.65453
98 1 5.10366 0.344134 0.794028
99 1 4.57216 1.43216 1.58951
100 1 5.68088 1.43326 1.72043
101 1 5.53104 0.773351 2.44457
102 1 6.21845 0.962089 12.8793
103 1 5.00223 13.196 3.1904
104 1 6.6671 0.535513 1.76278
105 1 6.83611 1.60293 1.50228
106 1 7.28298 0.798407 0.0413785
107 1 6.80525 1.03882 2.42312
108 1 7.80658 0.794553 2.54805
109 1 7.35925 0.275525 0.847552
110 1 8.02684 1.31973 11.3346
111 1 7.23026 0.838973 3.37021
112 1 7.85567 0.406183 1.56926
113 1 5.04332 0.957005 12.8768
114 1 4.42583 1.89647 12.0443
115 1 3.9188 1.39403 4.02123
116 1 5.12813 1.40356 0.786448
117 1 6.17942 1.98128 12.8698
118 1 6.26646 2.54653 0.793882
119 1 5.68882 2.1054 2.24766
120 1 5.04676 1.93535 0.00580402
121 1 6.07284 1.46295 0.853681
122 1 6.76733 2.1892 12.0009
123 1 6.7237 1.98273 2.52051
124 1 7.29186 1.41836 0.725091
125 1 7.96179 1.40097 1.62316
126 1 8.43661 1.72434 12.8426
127 1 7.84634 1.78844 2.56412
128 1 7.76624 1.90307 12.1313
129 1 4.54384 2.37203 1.52398
130 1 5.011 2.97047 0.00119448
131 1 4.48087 2.93526 2.26856
132 1 5.1597 2.57833 0.758156
133 1 5.71176 2.73491 1.5972
134 1 6.08048 3.16547 0.074603
135 1 5.01013 3.25983 3.17095
136 1 6.91487 2.53038 1.67899
137 1 7.82562 2.8548 2.52274
138 1 7.88308 2.98118 12.1237
139 1 6.65351 3.17168 2.3779
140 1 7.19109 2.04558 12.8975
141 1 7.40757 2.57527 0.701634
142 1 8.5559 2.92553 12.8964
143 1 7.70915 3.49097 1.62637
144 1 7.92619 2.5096 1.64632
145 1 4.49765 3.64752 1.64069
146 1 5.02131 4.18229 12.8849
147 1 4.33914 4.80905 1.72087
148 1 4.95865 3.6639 0.690409
149 1 5.61063 3.73692 1.4893
150 1 6.19638 4.33959 0.059015
151 1 5.60935 4.31736 2.37446
152 1 6.21823 3.70118 0.809505
153 1 7.27143 4.26731 12.9156
154 1 6.77675 4.2653 12.1134
155 1 6.7532 3.82937 1.5315
156 1 7.25104 3.65079 0.659587
157 1 7.89235 4.10844 2.33045
158 1 8.47068 4.03145 0.00163655
159 1 8.4516 4.19117 3.22725
160 1 8.32878 3.5242 0.897351
161 1 5.03826 0.921266 3.38927
162 1 4.36977 13.2574 2.47482
163 1 6.09763 1.06032 3.1492
164 1 6.00848 0.410125 4.07776
165 1 7.20996 1.49389 4.01263
166 1 7.19663 0.272455 4.13758
167 1 8.44795 0.645337 3.37119
168 1 8.30284 13.3454 3.96959
169 1 5.00317 1.67578 4.0231
170 1 4.60621 1.30996 4.74736
171 1 6.1479 2.1789 3.32935
172 1 6.11136 2.69621 4.14022
173 1 7.27395 2.1778 3.36173
174 1 6.81796 1.53947 4.77795
175 1 8.43621 1.89852 3.4215
176 1 8.28363 1.26351 3.99262
177 1 5.21364 3.75692 4.10695
178 1 4.89977 2.70044 3.93644
179 1 5.63734 3.3061 2.32668
180 1 6.14333 3.3144 3.19157
181 1 7.12781 3.26693 3.12428
182 1 7.28831 2.67365 4.08388
183 1 8.46228 2.97461 3.13589
184 1 8.46292 2.50053 4.01872
185 1 5.05211 4.35767 3.28605
186 1 4.53459 3.63999 4.81264
187 1 6.6675 4.40645 2.38191
188 1 6.20796 3.89021 3.98375
189 1 7.34613 4.26774 3.1242
190 1 7.35449 3.74709 3.97853
191 1 8.3056 5.32134 3.1321
192 1 7.91578 3.62004 4.80175
193 1 8.46873 0.0799479 0.9232
194 1 8.98582 0.631545 12.1247
195 1 8.83352 0.604147 2.40704
196 1 9.68398 0.038643 0.93225
197 1 10.2029 13.291 1.68415
198 1 10.9013 0.536418 0.035701
199 1 10.0943 0.521766 2.41011
200 1 10.7389 13.4033 0.76304
201 1 11.2957 13.2109 1.63551
202 1 11.2806 0.237162 12.1144
203 1 11.3168 0.361418 2.41351
204 1 11.8133 13.1359 0.813975
205 1 12.3293 13.1136 1.58762
206 1 11.9061 0.195112 12.9116
207 1 12.4243 0.271083 2.44052
208 1 12.9889 13.0287 0.940367
209 1 8.45627 1.30929 0.908267
210 1 9.94532 2.2716 1.62207
211 1 9.04693 1.41552 1.79016
212 1 9.59591 0.657924 12.8981
213 1 9.39534 1.0697 0.793825
214 1 9.97804 2.74366 12.088
215 1 10.1589 1.68104 2.4594
216 1 10.3995 1.18113 0.797609
217 1 11.1228 0.894557 1.57943
218 1 11.7009 1.90241 0.882356
219 1 11.2517 1.43229 2.38542
220 1 11.7893 0.876425 0.823341
221 1 12.3365 0.771994 1.60012
222 1 12.3937 0.230988 12.0804
223 1 12.3222 1.41063 2.40767
224 1 0.627674 13.0945 0.862673
225 1 8.83838 2.38795 1.56236
226 1 9.01932 2.83166 12.0209
227 1 9.61183 2.76145 3.37884
228 1 10.0216 2.81088 2.33904
229 1 10.0833 1.10236 1.66203
230 1 10.2118 2.14868 11.2446
231 1 10.2501 3.34668 1.58846
232 1 10.6223 2.14175 0.783077
233 1 11.1521 2.04446 1.62292
234 1 12.3174 2.52 12.1791
235 1 11.1325 2.64317 2.45434
236 1 11.6862 2.5047 0.0928863
237 1 12.3078 2.02948 1.61855
238 1 11.8468 3.78033 12.9442
239 1 12.261 2.60173 2.43736
240 1 13.055 1.32284 0.0639527
241 1 8.97673 2.76814 2.46913
242 1 9.49362 3.94447 0.0545878
243 1 8.97965 3.36644 1.54686
244 1 9.55077 2.77612 0.0105766
245 1 10.7303 3.18119 0.694884
246 1 10.6081 3.81571 12.9429
247 1 10.0021 4.46581 1.6936
248 1 10.169 3.36728 11.3757
249 1 11.1477 3.72399 2.49147
250 1 12.3314 3.61087 12.026
251 1 11.0758 4.2246 1.66481
252 1 11.7502 4.20828 0.928956
253 1 12.2856 3.09674 1.56197
254 1 13.4024 1.82986 1.6781
255 1 12.335 3.65431 2.41262
256 1 12.9802 2.93916 0.872331
257 1 9.45213 0.536854 3.27899
258 1 9.64266 13.4175 4.10093
259 1 10.5865 0.42392 3.08184
260 1 10.5722 13.3924 4.10326
261 1 11.8109 0.288943 3.24321
262 1 11.6047 13.1277 3.96744
263 1 12.8572 0.218588 3.27605
264 1 12.682 13.1352 4.05141
265 1 8.91313 1.73911 2.6051
266 1 9.53787 1.12054 4.06359
267 1 10.6709 1.39257 3.20273
268 1 10.5864 0.997441 4.13547
269 1 11.8878 1.41978 3.25403
270 1 11.6937 0.840561 3.92297
271 1 12.9239 1.43983 3.23642
272 1 13.0074 0.768409 4.14612
273 1 9.56684 2.14394 4.11756
274 1 9.63447 1.68682 3.26258
275 1 10.6045 2.75486 3.21144
276 1 10.7826 2.09871 3.93194
277 1 11.7998 2.59126 3.14881
278 1 11.8593 2.04736 3.98431
279 1 12.9505 2.43298 3.19433
280 1 12.9151 1.83722 4.0776
281 1 9.9411 3.84459 2.37424
282 1 9.5813 3.8784 3.2925
283 1 12.9126 3.56168 3.20346
284 1 10.7777 3.24944 3.97014
285 1 10.5377 3.855 3.2343
286 1 11.7907 3.11393 4.02026
287 1 11.7256 3.62911 3.27507
288 1 12.9272 2.9973 3.9597
289 1 13.3738 4.17877 1.59206
290 1 0.693118 4.15189 0.920898
291 1 0.0710107 4.71793 2.47186
292 1 0.313434 3.55 0.0213341
293 1 1.20025 4.33961 1.61515
294 1 1.45298 4.85388 12.9165
295 1 1.07092 4.88378 2.39884
296 1 1.76784 4.53686 0.653105
297 1 2.21859 4.31965 1.74333
298 1 2.71843 5.07939 12.9338
299 1 2.21576 4.98066 2.40557
300 1 2.69364 4.47711 0.689381
301 1 3.20052 4.6247 1.54241
302 1 3.81894 5.12395 0.157205
303 1 3.31779 4.98877 2.54208
304 1 3.87773 4.06224 12.9236
305 1 0.502304 5.25465 0.759877
306 1 0.52211 5.78947 0.0745827
307 1 0.00753376 5.87444 2.54907
308 1 0.414388 4.55727 12.9387
309 1 1.00933 5.48775 1.63418
310 1 1.63919 5.89011 0.0323509
311 1 1.22539 6.00475 2.4145
312 1 1.6533 5.48801 0.865479
313 1 2.24346 5.51491 1.51778
314 1 2.60757 6.1297 12.8987
315 1 2.25891 6.09318 2.23498
316 1 2.82558 5.70597 0.817905
317 1 3.33755 5.67099 1.65385
318 1 3.82415 6.41541 12.939
319 1 3.39021 6.15537 2.50023
320 1 3.89399 5.80739 0.678321
321 1 0.0523176 6.32651 1.66617
322 1 0.663483 6.94579 0.110559
323 1 0.0156978 7.44158 1.64568
324 1 0.515735 6.40713 0.753894
325 1 0.989735 6.57287 1.65659
326 1 1.91432 7.01577 12.9375
327 1 1.2317 6.99605 2.50484
328 1 1.63845 6.58247 0.808725
329 1 2.276 6.74259 1.44394
330 1 2.87456 7.31662 0.0183557
331 1 2.28958 7.15224 2.40292
332 1 2.99338 6.70453 0.840448
333 1 3.40813 6.72477 1.67065
334 1 3.95708 7.54024 12.8257
335 1 3.37108 7.41594 2.34284
336 1 3.95268 6.9963 0.699158
337 1 0.0146602 8.58671 1.63639
338 1 0.453278 8.05092 12.8601
339 1 0.582557 8.12488 3.11853
340 1 0.578562 7.6494 0.747858
341 1 1.08467 7.58727 1.648
342 1 1.61996 8.26526 0.0228173
343 1 1.19125 8.12544 2.45815
344 1 1.62376 7.71998 0.655822
345 1 2.14855 7.76885 1.54182
346 1 2.82175 8.33872 12.9363
347 1 2.37243 8.27096 2.47302
348 1 2.79527 7.83831 0.871417
349 1 3.40131 7.91301 1.56246
350 1 3.86969 8.60493 0.0333918
351 1 2.71171 9.43525 3.34484
352 1 3.96103 8.00073 0.876344
353 1 0.586998 4.59592 3.34019
354 1 0.524683 4.01328 4.03402
355 1 1.67887 4.87375 3.18852
356 1 1.68061 4.22136 4.03272
357 1 2.71225 5.09965 3.12791
358 1 3.31569 4.60593 4.79515
359 1 3.46241 4.00251 2.42357
360 1 3.99088 5.06518 3.18909
361 1 0.669875 5.76694 3.1536
362 1 0.426596 5.17248 3.9182
363 1 1.85467 5.95014 3.24353
364 1 1.70018 5.30469 4.12078
365 1 2.81654 6.25276 3.16425
366 1 3.00346 5.60309 3.94252
367 1 3.98207 6.40478 3.21994
368 1 3.93914 5.7359 3.89814
369 1 0.592908 6.2991 3.90737
370 1 1.0291 6.40148 4.81023
371 1 1.81596 7.15086 3.21127
372 1 1.65015 6.49418 3.89465
373 1 2.96395 7.33561 3.22845
374 1 2.79907 6.7393 4.09913
375 1 4.96579 7.72476 3.25418
376 1 3.37065 6.79211 4.83791
377 1 0.571872 8.57932 4.12315
378 1 0.548677 6.9701 3.1815
379 1 1.78313 8.39898 3.13696
380 1 1.65112 7.69157 3.93645
381 1 3.93072 8.57569 3.15201
382 1 2.74058 7.91944 4.05039
383 1 4.00725 7.49202 3.22867
384 1 4.0282 8.06466 4.13844
385 1 3.88907 4.51478 0.85502
386 1 4.96384 5.30637 0.035415
387 1 4.54368 5.30417 2.536
388 1 5.00181 4.76342 0.851449
389 1 5.59786 5.43197 2.34939
390 1 6.17941 4.90574 0.742854
391 1 6.19588 5.5894 3.29906
392 1 5.54777 4.74885 1.52419
393 1 6.72496 4.90419 1.60267
394 1 6.66997 5.43001 12.1022
395 1 6.65948 5.42929 2.37055
396 1 7.3774 4.70149 0.874558
397 1 7.8844 4.66507 1.5648
398 1 8.31216 5.21929 0.0664483
399 1 7.70936 5.24855 2.43046
400 1 8.44093 4.52153 0.786214
401 1 4.41548 5.79645 1.60587
402 1 5.00524 6.46846 0.0184604
403 1 4.57498 6.47787 2.48062
404 1 4.96146 5.88933 0.88872
405 1 5.599 6.00347 1.66425
406 1 6.0365 6.6005 0.142905
407 1 6.11787 6.48018 3.21567
408 1 6.1157 5.94187 0.819542
409 1 6.74485 5.97086 1.53876
410 1 7.38697 5.95464 0.829495
411 1 6.66913 6.64587 2.357
412 1 7.27494 5.36304 0.0252921
413 1 7.86936 5.7736 1.68406
414 1 8.46429 6.37503 12.8842
415 1 7.9163 6.41458 2.45144
416 1 8.41378 5.73264 0.756853
417 1 4.43796 6.85502 1.52747
418 1 5.07594 7.58912 0.0968978
419 1 4.5241 7.43959 2.32008
420 1 5.04211 7.08811 0.792744
421 1 5.54932 6.62446 2.37277
422 1 6.2027 7.7268 12.8795
423 1 5.6647 7.09004 1.52608
424 1 6.28867 7.1763 0.807887
425 1 6.81799 7.17534 1.67499
426 1 7.40077 7.75965 0.0819034
427 1 6.68735 7.6753 2.51543
428 1 7.24936 7.15285 0.606523
429 1 7.84304 6.98051 1.61791
430 1 8.29415 6.86187 0.758187
431 1 7.92474 7.62252 2.45822
432 1 8.89181 6.88161 1.68998
433 1 4.64753 8.06247 1.58891
434 1 5.23966 8.86101 12.8881
435 1 4.49974 8.66734 2.40433
436 1 5.18896 8.27657 0.762587
437 1 5.58019 7.70029 2.51261
438 1 6.22065 8.89735 12.8128
439 1 5.67409 8.04797 1.63663
440 1 6.21572 8.25535 0.796729
441 1 6.67724 8.21545 1.72443
442 1 7.23186 8.8168 12.9458
443 1 6.90099 8.70684 2.60252
444 1 7.26563 8.2252 0.910558
445 1 7.78571 8.05496 1.68129
446 1 8.47228 7.91275 0.90062
447 1 7.97862 9.18515 1.72363
448 1 8.48274 7.48715 12.9495
449 1 5.18429 5.44891 3.25151
450 1 4.50047 4.10278 2.39959
451 1 6.2748 6.01774 4.2835
452 1 6.22292 4.41167 3.23356
453 1 7.25274 5.36695 3.32252
454 1 7.19311 4.81638 4.07915
455 1 8.30554 5.74093 4.15683
456 1 8.41491 3.57287 3.9982
457 1 5.05018 5.90105 4.11934
458 1 4.58369 5.18518 5.74205
459 1 6.23766 6.98481 4.00173
460 1 6.03037 7.62336 3.3144
461 1 7.25755 6.42014 3.04249
462 1 8.29768 6.27486 6.45443
463 1 8.51048 6.27344 3.31374
464 1 7.79837 6.54214 5.69976
465 1 5.10216 8.26042 4.08098
466 1 5.09969 6.56099 3.30022
467 1 6.16973 8.83168 3.19693
468 1 5.0948 7.11927 4.14068
469 1 6.2327 8.34341 3.96759
470 1 7.39931 7.55677 3.16094
471 1 8.49415 7.34513 3.28929
472 1 8.39658 6.87797 4.06514
473 1 5.07083 8.78344 3.34593
474 1 4.59357 8.07771 4.97468
475 1 5.80163 8.22534 4.87474
476 1 6.8295 8.19065 4.94633
477 1 7.42477 8.7862 3.32075
478 1 6.70009 9.1805 4.90576
479 1 7.95422 8.69413 2.34071
480 1 8.44391 7.97598 4.17132
481 1 8.94607 3.83735 2.40985
482 1 9.51258 5.01711 12.9124
483 1 9.57138 4.7033 0.816155
484 1 9.43114 5.02881 3.19304
485 1 11.246 3.09071 1.63413
486 1 10.0945 5.09124 12.1356
487 1 10.1451 6.53443 1.60831
488 1 10.5695 4.84875 0.0867735
489 1 10.6929 4.34573 0.821153
490 1 12.4529 4.79281 12.2664
491 1 11.2044 4.80322 2.46803
492 1 11.6864 4.78751 12.8867
493 1 12.3621 4.25369 1.72855
494 1 12.8772 4.69604 0.0955201
495 1 12.2058 4.7825 2.39239
496 1 12.8324 4.04297 0.838496
497 1 8.88877 5.66994 1.6573
498 1 9.52095 6.38625 0.0769121
499 1 9.58367 6.16408 3.35036
500 1 8.97407 4.55031 1.61729
501 1 9.51273 5.69093 0.809611
502 1 10.4105 6.05988 0.045003
503 1 10.658 5.98892 3.24866
504 1 10.069 5.41918 1.5169
505 1 10.7 5.49664 0.858667
506 1 11.1249 5.99173 12.1325
507 1 11.1976 5.29151 1.67814
508 1 11.7818 5.24541 0.893939
509 1 12.3542 5.4542 1.77621
510 1 12.7987 5.95524 12.9167
511 1 12.7333 5.66141 3.04454
512 1 13.3729 5.34608 1.63803
513 1 9.09692 6.13313 2.43101
514 1 9.47521 7.40942 0.0214891
515 1 9.02192 7.23898 2.48833
516 1 9.39652 6.66771 1.01136
517 1 10.1451 6.08682 2.39059
518 1 10.5873 7.08003 0.077127
519 1 10.1299 7.30321 2.31122
520 1 10.6629 6.5806 0.828359
521 1 11.2386 6.53131 1.54274
522 1 11.6685 6.97425 12.8509
523 1 11.2614 7.28181 2.39928
524 1 12.8202 5.18947 0.76427
525 1 12.8007 6.33347 0.972296
526 1 12.2712 7.0688 12.155
527 1 12.3048 6.30295 1.99066
528 1 12.9497 6.9135 12.8073
529 1 9.04592 8.06724 1.74445
530 1 10.5925 8.27368 12.8641
531 1 8.33681 8.39818 3.35457
532 1 9.53028 7.72859 0.886471
533 1 10.1749 7.74422 1.56191
534 1 10.7243 7.70048 0.683923
535 1 10.1417 8.35679 2.52625
536 1 11.1868 7.62101 1.49261
537 1 11.1894 8.34052 2.4428
538 1 11.8362 7.37533 0.722797
539 1 11.7585 8.10981 3.19797
540 1 11.9087 6.38748 0.84174
541 1 12.2291 7.46847 1.54529
542 1 12.8777 7.95011 0.0931288
543 1 12.9657 7.98038 3.24594
544 1 12.9135 7.35469 0.911948
545 1 8.93685 5.01948 2.37564
546 1 9.52645 3.30704 4.04819
547 1 10.0524 4.95375 2.49779
548 1 10.6359 4.36209 4.09408
549 1 11.8059 4.79227 3.36679
550 1 11.7721 4.21993 3.99911
551 1 12.8849 4.58766 3.16719
552 1 12.8909 4.15513 4.08526
553 1 9.52826 6.7386 4.14552
554 1 9.5336 5.62527 4.03671
555 1 10.6297 4.97503 3.32465
556 1 10.6593 5.5398 4.03757
557 1 11.285 5.96243 2.31504
558 1 11.7501 5.37543 4.12968
559 1 11.8576 5.95273 3.01876
560 1 12.8024 5.26499 4.02461
561 1 9.54538 8.26842 3.2504
562 1 9.74789 7.12256 3.21774
563 1 10.726 7.00043 3.01949
564 1 10.7563 6.62239 4.04968
565 1 11.7894 6.89059 3.34812
566 1 11.8007 6.31111 4.11944
567 1 12.2743 7.10126 2.41283
568 1 13.3386 6.96385 2.4693
569 1 9.01128 8.4637 2.53183
570 1 9.057 7.98961 4.87476
571 1 10.6425 8.12953 3.31697
572 1 10.5972 7.58422 3.99006
573 1 12.4097 8.10418 2.48848
574 1 12.36 8.56283 4.78017
575 1 12.8673 6.86134 3.2898
576 1 12.9552 7.49843 4.03912
577 1 0.00104866 8.07213 2.32472
578 1 0.0160299 9.13219 12.0793
579 1 0.562431 9.11857 3.32102
580 1 0.550467 8.55927 0.794382
581 1 1.2366 8.64717 1.48246
582 1 1.63196 9.4337 12.8768
583 1 1.24592 9.20932 2.3085
584 1 1.8637 8.91172 0.733924
585 1 2.30797 8.83368 1.78093
586 1 2.778 9.50968 0.0700689
587 1 2.3643 9.49014 2.36532
588 1 2.8604 8.88674 0.782669
589 1 3.41025 9.06433 1.60019
590 1 3.90543 9.77714 0.0550934
591 1 3.38552 8.47484 2.39467
592 1 4.03173 9.12357 0.75778
593 1 0.143422 9.14946 2.40467
594 1 0.490059 9.62452 0.783731
595 1 13.4039 10.3886 2.40918
596 1 0.480052 9.17852 12.9408
597 1 1.20744 9.73875 1.58123
598 1 1.65103 10.4268 0.0131279
599 1 1.16324 10.3464 2.38182
600 1 1.71995 9.90633 0.790554
601 1 2.30519 10.0574 1.62842
602 1 2.78168 10.4904 0.0748688
603 1 2.82186 10.4303 3.31398
604 1 2.8721 9.98264 0.903623
605 1 3.52992 10.0847 1.7869
606 1 3.91914 10.8438 0.0601284
607 1 3.334 10.709 2.45949
608 1 3.92591 10.1973 0.857456
609 1 13.433 10.726 1.44957
610 1 0.559688 12.0432 0.828486
611 1 0.0178981 11.3958 2.44883
612 1 0.566014 10.3445 0.0673992
613 1 0.573318 10.8628 0.82092
614 1 2.95426 11.7085 0.028122
615 1 1.12306 11.4821 2.49705
616 1 1.16078 10.7745 1.63222
617 1 2.28932 10.5955 2.35396
618 1 2.79285 12.2768 0.811831
619 1 2.36136 11.2585 1.58972
620 1 1.54737 11.0449 0.871199
621 1 3.36979 11.1773 1.65835
622 1 3.95128 11.9467 12.9337
623 1 3.31994 11.8744 2.39757
624 1 3.92589 11.3153 0.949822
625 1 0.0696264 11.7768 1.58535
626 1 0.0304506 12.5517 12.0668
627 1 0.0524604 12.5573 2.44137
628 1 0.521341 12.6233 0.0452162
629 1 1.17535 11.9332 1.65828
630 1 1.74231 0.322653 12.9184
631 1 1.10246 12.5884 2.40236
632 1 1.66026 12.0738 0.832284
633 1 2.26759 12.3665 1.66893
634 1 1.86174 12.6925 0.15921
635 1 2.28114 12.7746 2.54652
636 1 2.86375 12.8406 0.169087
637 1 3.3456 12.4359 1.60452
638 1 4.14254 13.3767 0.863571
639 1 3.90221 12.9001 3.33768
640 1 3.92724 12.3756 0.946847
641 1 0.48952 9.72019 4.09828
642 1 0.647157 7.46945 3.97536
643 1 1.59706 9.46723 3.25521
644 1 1.64072 8.71932 4.02932
645 1 2.93513 8.41726 3.33773
646 1 2.76964 9.06697 4.114
647 1 3.39093 9.58356 2.58347
648 1 3.93779 9.68003 3.42702
649 1 0.620166 10.2641 3.24676
650 1 0.0382078 9.59032 4.89446
651 1 1.7752 10.5052 3.24179
652 1 1.70303 9.73666 4.10578
653 1 2.85726 10.1358 4.1207
654 1 4.03357 10.2837 4.00111
655 1 3.87876 10.9488 3.39639
656 1 4.56077 10.4082 4.94432
657 1 0.481826 11.5342 3.30159
658 1 0.51519 10.7705 3.97107
659 1 2.24246 11.6763 2.41002
660 1 1.70956 11.5723 3.27576
661 1 2.81998 11.6326 3.1263
662 1 2.68215 11.2665 3.9416
663 1 3.90111 11.9296 3.22459
664 1 3.84749 11.5403 4.16337
665 1 0.519664 13.1389 4.16466
666 1 0.548093 12.7626 3.29489
667 1 1.59869 12.6427 3.28165
668 1 1.67255 12.1873 4.07676
669 1 2.80285 12.8476 3.28654
670 1 2.79898 12.2344 4.02693
671 1 3.80121 0.253367 4.10915
672 1 3.96029 12.5841 4.26591
673 1 4.60924 9.18688 1.63769
674 1 5.00525 9.93304 12.8963
675 1 4.49718 9.86976 2.54765
676 1 5.09455 9.30536 0.797061
677 1 5.77553 9.30341 1.58671
678 1 6.04644 11.0375 0.107685
679 1 5.52729 9.92744 2.32828
680 1 6.21604 9.33199 0.769307
681 1 6.81344 9.26146 1.65444
682 1 7.31671 9.83254 12.8717
683 1 6.79393 9.90489 2.38679
684 1 7.38235 9.28327 0.829319
685 1 8.37605 9.04008 0.797696
686 1 8.41471 9.6433 0.00253987
687 1 7.84256 10.2704 1.51575
688 1 8.51205 8.56184 0.0802042
689 1 4.57843 10.3207 1.58338
690 1 5.02069 11.0257 0.072953
691 1 4.47607 10.9267 2.50327
692 1 5.14342 10.4172 0.849826
693 1 5.74217 10.5095 1.66306
694 1 5.57949 11.0403 12.1001
695 1 5.54017 11.016 2.43957
696 1 6.20596 9.90289 12.8889
697 1 6.12824 10.3774 0.777427
698 1 7.10265 10.8682 12.8745
699 1 6.76179 11.0426 2.46237
700 1 6.76195 10.4167 1.60913
701 1 7.30671 10.3775 0.706688
702 1 8.31936 10.8868 0.119017
703 1 7.80105 10.8316 2.43382
704 1 8.47435 10.2222 0.764484
705 1 4.59608 11.412 1.70166
706 1 4.99448 12.137 12.8744
707 1 4.35356 12.1321 2.22752
708 1 5.04072 11.6555 0.850518
709 1 5.70285 11.5754 1.64176
710 1 6.22401 12.3135 12.917
711 1 5.60357 12.6683 1.65388
712 1 6.22383 11.6 0.747245
713 1 6.68956 11.5725 1.63345
714 1 7.38452 12.0522 0.0604685
715 1 6.71647 12.1171 2.50294
716 1 7.22979 11.6124 0.765652
717 1 7.8187 11.3919 1.65199
718 1 8.43135 11.9475 0.0709494
719 1 7.94502 12.0472 2.28348
720 1 8.29088 11.4432 0.878052
721 1 4.64936 12.7203 1.63711
722 1 5.62748 13.2992 12.1307
723 1 4.55176 0.983281 2.4547
724 1 5.08478 13.2077 0.0815695
725 1 5.11634 12.5864 0.752533
726 1 6.25123 0.439635 0.778295
727 1 5.67433 13.1943 2.47884
728 1 6.12512 12.7157 0.766102
729 1 6.71164 12.8329 1.62444
730 1 7.39468 13.211 12.8446
731 1 6.77693 13.2864 2.37712
732 1 7.26973 12.7216 0.812781
733 1 7.82088 12.6 1.6039
734 1 8.37799 13.1798 0.0303073
735 1 7.93832 13.2216 2.338
736 1 8.45395 12.5117 0.871009
737 1 5.06598 9.87035 3.23373
738 1 5.07528 9.35829 4.11501
739 1 6.08762 9.91554 3.09937
740 1 6.19219 9.43818 4.00364
741 1 7.89585 9.8816 2.35881
742 1 7.21496 9.36911 4.09049
743 1 8.38743 9.55816 3.25599
744 1 9.09492 9.09977 4.77071
745 1 5.0251 10.9661 3.23936
746 1 5.03789 10.542 4.09205
747 1 6.15378 11.0769 3.16205
748 1 6.16952 10.4461 4.01193
749 1 7.19254 11.045 3.35761
750 1 7.34057 10.3993 3.97866
751 1 8.34028 10.7695 3.23963
752 1 8.43727 10.254 3.91376
753 1 5.52772 12.1509 2.54506
754 1 4.86149 12.1033 3.21425
755 1 6.14594 12.1119 3.23253
756 1 6.09532 11.5996 4.11094
757 1 7.29925 12.2243 3.14309
758 1 7.22642 11.5966 3.9981
759 1 8.30065 11.7955 3.28768
760 1 8.45565 11.3033 4.13915
761 1 4.89978 0.281002 3.96882
762 1 5.08814 12.6555 4.11687
763 1 6.30873 13.3869 3.32247
764 1 6.16291 12.7006 3.92554
765 1 7.33463 13.2088 3.16836
766 1 7.18881 12.6673 4.21191
767 1 8.29931 12.8707 3.26875
768 1 8.42479 12.2874 4.14814
769 1 8.96889 9.14623 1.53766
770 1 9.57078 8.78791 0.730248
771 1 9.03464 9.59487 2.57768
772 1 9.48776 9.47501 0.135052
773 1 9.97226 8.9128 1.61131
774 1 10.0843 9.44869 12.1737
775 1 10.2048 9.38892 2.49422
776 1 10.6319 8.83838 0.961244
777 1 11.3011 8.69942 1.60834
778 1 11.8173 9.28534 12.9371
779 1 11.2271 9.36461 2.37285
780 1 11.6575 8.75997 0.650539
781 1 12.2527 8.51751 1.61504
782 1 12.9476 9.15354 0.0100191
783 1 12.4296 9.2318 2.39888
784 1 12.8831 8.5084 0.845162
785 1 8.97997 10.2226 1.5792
786 1 9.49711 10.7378 0.0688259
787 1 9.03059 10.6261 2.41171
788 1 9.6847 10.04 0.781465
789 1 10.0373 9.94919 1.73778
790 1 11.1743 9.95136 1.6859
791 1 10.1319 10.6043 2.45697
792 1 10.7128 9.23976 12.9336
793 1 11.7954 9.76483 0.814826
794 1 11.6362 10.3484 0.0397988
795 1 11.7989 10.4043 3.33214
796 1 12.8069 9.663 0.792296
797 1 12.3199 9.6848 1.712
798 1 12.9005 10.3611 12.8891
799 1 12.2945 10.4286 2.40673
800 1 0.0345075 9.71362 1.66153
801 1 8.949 11.294 1.64205
802 1 9.51505 11.9122 12.9073
803 1 8.90402 11.8155 2.40839
804 1 9.45798 11.2391 0.852976
805 1 10.0614 11.0768 1.5746
806 1 10.6172 11.5607 0.10615
807 1 10.1637 11.6501 2.46965
808 1 10.6218 9.8581 0.848804
809 1 10.6156 10.9887 0.732995
810 1 11.8095 10.9368 0.850823
811 1 11.185 11.4662 2.464
812 1 11.1646 11.0484 1.53428
813 1 12.3489 10.8861 1.69868
814 1 12.789 11.5139 12.911
815 1 12.3157 11.5728 2.38784
816 1 12.8101 10.7183 0.822995
817 1 9.09008 12.3975 1.64724
818 1 9.44189 13.0749 0.0448528
819 1 9.06025 0.133673 1.65736
820 1 9.54256 12.4102 0.715308
821 1 10.138 12.1566 1.56579
822 1 10.5403 12.8009 12.8867
823 1 10.1325 12.6857 2.4368
824 1 10.725 12.2853 0.742748
825 1 11.2444 12.017 1.61953
826 1 0.0620331 11.8889 11.4703
827 1 11.2585 12.6491 2.31722
828 1 11.7799 12.0414 0.748721
829 1 12.3213 12.0308 1.56649
830 1 11.7496 12.6022 12.9217
831 1 12.4449 12.543 2.49687
832 1 12.9021 11.9257 0.8204
833 1 9.72192 9.49914 3.27524
834 1 10.0709 8.79627 4.7473
835 1 10.6835 9.39997 3.32074
836 1 10.7189 8.78686 4.07523
837 1 11.2268 10.513 2.45249
838 1 11.807 8.63857 3.96235
839 1 12.9415 9.24376 3.15092
840 1 12.891 8.68079 3.86194
841 1 9.45026 10.6709 3.27191
842 1 9.50381 10.1122 4.0093
843 1 10.6298 10.5108 3.23253
844 1 10.6517 10.0345 4.16433
845 1 11.8647 9.69819 4.03645
846 1 11.7317 9.31377 3.10015
847 1 12.8924 10.258 3.18172
848 1 12.929 9.74612 4.06268
849 1 9.46907 11.765 3.16678
850 1 9.55292 11.1311 4.09216
851 1 10.6691 11.705 3.26792
852 1 10.5986 11.1043 3.9942
853 1 11.8242 11.4874 3.17345
854 1 11.7139 10.9041 4.17583
855 1 12.8957 11.4008 3.27449
856 1 12.8821 10.7981 4.11651
857 1 9.04359 13.0008 2.56078
858 1 9.4503 12.8903 3.29302
859 1 10.5799 12.8184 3.18824
860 1 10.6735 12.2236 4.08146
861 1 11.8092 12.5836 3.18655
862 1 11.8122 12 4.01521
863 1 12.9531 12.6191 3.31683
864 1 12.9179 11.9448 4.04329
865 1 13.3242 13.0721 4.78778
866 1 0.0100258 0.0113786 5.66869
867 1 1.16931 13.1416 4.85621
868 1 1.14846 0.324506 5.76104
869 1 2.29343 12.8247 5.71214
870 1 2.31884 13.3355 4.92087
871 1 3.40819 0.0803682 4.83414
872 1 2.83279 0.478526 6.43576
873 1 0.0549501 0.696196 5.10025
874 1 0.157821 1.43639 5.65923
875 1 1.27786 0.861035 4.98352
876 1 0.597297 1.36757 6.41431
877 1 2.42693 1.00981 4.6465
878 1 1.67215 1.59748 6.49529
879 1 2.87233 1.19532 3.96751
880 1 3.51439 1.70019 5.67686
881 1 0.0488441 1.93519 4.82993
882 1 13.3991 2.45038 5.70107
883 1 1.30703 1.53705 5.66475
884 1 2.24245 2.69691 5.6783
885 1 2.34519 1.46101 5.64936
886 1 1.61778 2.00185 3.90144
887 1 2.87787 2.81069 6.62052
888 1 3.31683 2.8238 5.62422
889 1 13.3369 3.13841 4.78991
890 1 0.044941 3.61498 5.64571
891 1 1.09105 2.56698 5.63444
892 1 1.17816 3.68687 5.58005
893 1 2.28693 3.31069 4.89068
894 1 2.28808 3.908 5.77258
895 1 3.34923 3.50285 5.02071
896 1 3.49911 4.21342 5.71885
897 1 13.4187 13.0387 8.10619
898 1 0.389706 0.447369 6.54822
899 1 0.571642 12.6534 6.51087
900 1 0.559107 13.2364 7.38567
901 1 1.73895 13.3518 7.3073
902 1 1.66683 0.340216 6.48224
903 1 2.22948 13.3221 8.10666
904 1 2.8512 0.0191298 7.37113
905 1 3.38058 0.195297 8.09421
906 1 3.28885 0.678434 8.91035
907 1 3.52389 0.519656 5.75308
908 1 3.89224 1.15408 7.04086
909 1 13.429 0.812239 8.19176
910 1 0.511594 1.99431 7.2012
911 1 0.529638 0.877763 7.39813
912 1 2.19691 0.434778 8.87133
913 1 1.717 0.996792 7.1835
914 1 1.7874 0.457567 9.68117
915 1 2.80501 1.0923 7.31591
916 1 2.92065 1.59655 6.47235
917 1 2.28522 0.510214 5.69053
918 1 2.95187 0.594796 9.72708
919 1 3.89845 2.82814 6.29641
920 1 3.34778 1.44178 8.00509
921 1 0.0844344 1.86711 8.13636
922 1 1.18553 1.98816 8.02712
923 1 1.19541 2.49002 8.77744
924 1 1.074 0.953696 8.08162
925 1 1.72782 3.2153 7.23113
926 1 1.78212 2.1021 7.27448
927 1 2.36761 2.24242 8.1039
928 1 1.80441 2.75152 6.43983
929 1 2.92657 2.20628 7.2756
930 1 2.79143 1.80654 9.72567
931 1 3.39017 2.68863 8.72835
932 1 3.78912 2.40918 7.64857
933 1 0.0267326 3.08912 8.14051
934 1 0.627052 3.67556 6.44639
935 1 0.702406 2.58359 6.40147
936 1 0.513248 2.95632 7.2501
937 1 1.64722 3.85457 6.48891
938 1 2.33966 3.22027 8.08235
939 1 2.84483 3.38942 7.33669
940 1 2.85855 3.89764 6.46673
941 1 3.48218 3.35628 8.09075
942 1 3.24837 3.77441 8.88183
943 1 4.61483 4.22234 5.56663
944 1 3.88148 1.89742 6.65204
945 1 4.55697 0.472645 4.97023
946 1 4.36911 0.869277 5.95444
947 1 5.65148 0.436564 4.86424
948 1 5.62897 1.02869 5.65167
949 1 6.72386 0.292178 4.81804
950 1 6.6661 1.08925 5.5502
951 1 7.92556 0.317211 4.7536
952 1 8.46943 0.641466 6.35011
953 1 3.34923 1.13504 4.91957
954 1 3.90573 3.54117 4.22729
955 1 5.60135 1.63178 4.78794
956 1 5.5646 2.03738 5.69187
957 1 6.10716 1.4663 4.07173
958 1 6.77395 3.14974 5.73762
959 1 7.96384 1.38826 4.90227
960 1 7.87041 1.91617 5.79895
961 1 4.52146 1.89834 5.66067
962 1 5.04225 3.44504 7.40376
963 1 5.48462 2.75568 4.73512
964 1 5.06747 3.08448 6.39228
965 1 6.6774 2.62133 4.95985
966 1 6.67235 4.17175 5.55308
967 1 7.71872 2.53617 4.88456
968 1 7.93191 2.9612 5.74798
969 1 5.72787 3.84165 5.06735
970 1 3.85203 4.5895 7.18831
971 1 5.06329 4.79133 4.10177
972 1 5.62253 5.01224 4.88145
973 1 6.7641 3.61826 4.70584
974 1 6.72945 4.83587 4.91145
975 1 7.68257 4.01362 5.6113
976 1 8.29406 4.07653 6.3283
977 1 4.41704 0.328449 7.89629
978 1 5.12434 0.857304 6.46961
979 1 5.10445 0.287584 7.25752
980 1 5.52684 0.463063 8.13998
981 1 6.28113 0.846326 6.37927
982 1 6.19911 0.43473 7.3021
983 1 6.75013 13.1244 8.89345
984 1 7.75443 0.786856 5.70508
985 1 6.64561 0.372123 8.10886
986 1 7.86244 0.175026 8.12957
987 1 8.42042 0.143654 7.25111
988 1 8.32824 12.9759 6.45225
989 1 4.41211 1.2891 8.07113
990 1 5.06955 2.06818 6.54001
991 1 5.02545 1.35919 7.31761
992 1 5.61147 1.66496 8.07351