data.lammps (converted from cfg to data.lammps)
    
2298  atoms
1  atom types
0.0   13.4375  xlo xhi
0.0   13.4375  ylo yhi
0.0   12.952  zlo zhi
0.0  0.0 0.0 xy xz yz
    
    
    
Atoms
  
1 1 0.152587 13.1077 1.57487
2 1 0.671794 0.23061 0.0842587
3 1 0.0317149 0.818689 1.7276
4 1 1.19013 13.1401 1.59681
5 1 1.77004 13.0414 0.690283
6 1 2.22729 12.8316 11.3576
7 1 1.12801 0.183813 2.37098
8 1 2.42473 0.728122 1.71637
9 1 2.34452 12.9735 1.341
10 1 2.96724 13.2313 0.783523
11 1 2.21119 0.134501 2.29534
12 1 2.92295 0.282486 12.7783
13 1 3.39738 12.721 2.39758
14 1 4.08903 0.587264 0.235166
15 1 3.33345 0.490318 2.4701
16 1 3.33281 13.2886 1.7613
17 1 12.9056 0.874628 0.796016
18 1 1.15705 1.82806 11.2809
19 1 0.0973081 1.49649 2.35948
20 1 0.589073 0.728114 0.907615
21 1 1.34937 0.797608 1.40849
22 1 0.70225 1.22056 0.0478415
23 1 1.13873 1.77859 1.51768
24 1 1.69361 1.28965 12.8359
25 1 1.82136 0.755772 0.731621
26 1 2.33063 1.33768 12.1831
27 1 2.27091 1.36469 2.29262
28 1 2.71382 1.50402 3.30779
29 1 3.46634 0.893927 1.46806
30 1 3.85754 1.35877 0.182972
31 1 5.10884 1.85116 3.25774
32 1 5.6457 0.240237 1.60276
33 1 12.928 2.00015 0.752794
34 1 0.58604 2.53314 12.8931
35 1 0.0664491 2.50634 2.43609
36 1 0.00756238 1.89697 1.54686
37 1 2.31925 1.92324 1.60953
38 1 1.67705 2.43431 0.0269885
39 1 1.19803 2.30518 2.32376
40 1 2.84106 1.96041 0.873456
41 1 2.80361 0.822259 0.755822
42 1 2.84073 2.45015 0.0857259
43 1 2.32027 2.53247 2.51174
44 1 3.58397 1.94328 1.47338
45 1 3.37362 1.5141 2.53165
46 1 3.913 2.5556 12.8436
47 1 2.88361 2.66744 3.24248
48 1 4.03136 2.16182 0.684606
49 1 0.0527211 3.0612 1.67486
50 1 0.499641 2.93491 0.750236
51 1 13.3367 3.70432 2.37
52 1 1.0575 2.8745 1.74611
53 1 0.658486 1.90874 0.755431
54 1 1.62832 3.43488 0.0233078
55 1 1.10351 3.61838 2.38458
56 1 1.62451 2.97811 0.870117
57 1 2.24867 3.02655 1.6348
58 1 2.68268 3.57255 0.203451
59 1 2.1703 3.63464 2.42258
60 1 2.92412 3.06171 0.862362
61 1 3.3816 3.03764 1.75149
62 1 3.95472 3.89882 12.9224
63 1 3.25987 3.66403 2.50049
64 1 3.88494 3.24169 0.691695
65 1 0.0490278 0.293624 2.48365
66 1 0.599803 0.0938879 3.34755
67 1 1.64454 0.245732 3.13457
68 1 1.744 13.0409 3.901
69 1 2.67017 0.313936 3.16906
70 1 2.82295 13.1464 4.14188
71 1 3.86438 1.5948 3.39339
72 1 3.92435 0.296343 3.22998
73 1 0.596308 1.37097 3.24896
74 1 0.63368 0.781122 4.05752
75 1 1.08593 1.19773 2.43954
76 1 1.72356 0.68173 4.02727
77 1 1.8305 1.27954 3.21417
78 1 2.36207 0.730602 4.74579
79 1 3.81083 2.19086 4.06181
80 1 4.495 1.60417 2.50392
81 1 0.597253 2.56053 3.15019
82 1 0.502307 1.92256 3.98881
83 1 1.65574 2.34463 3.15265
84 1 1.56207 1.76023 4.01261
85 1 2.64226 1.94677 4.0493
86 1 3.29192 2.03515 4.78764
87 1 3.44262 2.33043 2.30809
88 1 4.40308 2.24379 4.86557
89 1 0.576668 3.54081 3.15853
90 1 0.605167 3.01838 4.07918
91 1 1.65542 3.38964 3.2308
92 1 1.6996 2.90172 4.08585
93 1 2.75603 3.62642 3.32984
94 1 2.66186 3.11339 4.19574
95 1 3.94 3.8525 3.23753
96 1 3.88973 2.70598 3.17312
97 1 4.54036 13.4178 1.48355
98 1 5.23307 0.654886 0.0692918
99 1 4.38308 1.00651 1.57524
100 1 5.34864 0.0713606 0.795592
101 1 5.60498 0.618125 2.655
102 1 6.15425 0.828142 0.0852972
103 1 5.08198 13.06 3.32267
104 1 6.59155 0.217051 1.44215
105 1 6.84373 1.28807 1.69636
106 1 7.42607 0.87905 0.0950489
107 1 6.54222 0.85955 2.43157
108 1 7.91242 0.414683 1.71067
109 1 7.22416 0.403433 0.890861
110 1 7.88534 1.65037 11.3898
111 1 7.59735 0.940801 2.58557
112 1 8.41068 0.443142 0.848508
113 1 4.91045 1.16657 0.910343
114 1 4.41294 1.61785 12.2025
115 1 3.96572 0.966019 3.99795
116 1 5.64028 1.19582 1.65817
117 1 6.19809 1.9362 0.0191217
118 1 6.14147 2.3523 0.90632
119 1 5.65627 1.75504 2.42454
120 1 5.17665 1.65879 12.8439
121 1 6.24977 1.37425 0.892206
122 1 6.79615 1.90438 12.0473
123 1 6.62477 2.08244 2.43652
124 1 7.29963 1.54408 0.816143
125 1 7.85989 1.46484 1.68499
126 1 8.42765 2.09622 0.0944845
127 1 7.88584 2.05047 2.45108
128 1 7.80244 2.23106 12.2111
129 1 4.63459 2.18229 1.55396
130 1 5.09043 2.91728 12.9484
131 1 4.50864 2.73282 2.46925
132 1 5.08358 2.11158 0.766011
133 1 5.57773 2.39276 1.67787
134 1 6.10538 2.92901 0.0702234
135 1 5.59656 3.01785 2.38584
136 1 6.79959 2.44673 1.68494
137 1 7.95414 3.1316 2.4783
138 1 7.78116 3.23027 12.2678
139 1 6.80177 3.12376 2.5348
140 1 7.27955 2.08574 0.0219079
141 1 7.3008 2.64375 0.774132
142 1 8.42393 3.33142 0.0197786
143 1 7.92444 3.76734 1.71933
144 1 7.79964 2.65585 1.69871
145 1 4.41967 3.23735 1.53497
146 1 5.11478 4.02784 0.0535973
147 1 4.46026 3.73696 2.42041
148 1 5.02038 3.32449 0.837006
149 1 5.6171 3.48644 1.59343
150 1 6.14328 4.04742 0.117029
151 1 5.59892 4.07842 2.47085
152 1 6.23642 3.52303 0.859214
153 1 7.21308 4.27815 12.9041
154 1 6.56615 4.25184 12.0494
155 1 6.77431 3.52005 1.71615
156 1 7.345 3.87512 0.938887
157 1 7.72338 4.27099 2.47725
158 1 8.48179 4.40176 0.0235062
159 1 8.31116 4.32068 3.11351
160 1 8.25459 3.71282 0.82416
161 1 4.97084 0.736726 3.33751
162 1 4.65513 12.9658 2.35102
163 1 6.02797 0.846745 3.45772
164 1 6.2153 0.111537 4.13195
165 1 7.08146 0.920537 3.37585
166 1 7.36828 0.409211 4.03667
167 1 8.39305 1.07995 3.03943
168 1 8.48151 0.4281 4.07864
169 1 5.04062 1.34448 4.08554
170 1 4.47044 1.10436 4.87758
171 1 6.15248 1.99075 3.22518
172 1 6.13759 1.53335 4.09656
173 1 7.36229 1.9645 3.11449
174 1 7.36093 1.57457 4.06366
175 1 8.42996 2.09544 3.40428
176 1 8.34338 1.37366 4.03233
177 1 5.07962 2.91971 3.24736
178 1 4.97484 2.37856 4.13577
179 1 6.14037 3.18371 3.27746
180 1 6.33041 2.62272 4.07865
181 1 7.23796 3.24087 3.25519
182 1 7.23857 2.58984 3.97621
183 1 8.4637 3.24528 3.30121
184 1 8.35106 2.72187 4.09707
185 1 5.00336 3.4233 4.11501
186 1 4.27654 3.4971 4.81036
187 1 6.62004 4.24562 2.38266
188 1 6.07087 3.56595 4.18417
189 1 7.05891 4.35058 3.20881
190 1 7.33932 3.77267 4.02625
191 1 8.3404 5.50675 3.21871
192 1 7.95613 3.76196 4.99528
193 1 9.03837 0.298566 1.63551
194 1 8.9952 0.801114 12.2395
195 1 8.89604 0.760649 2.43446
196 1 9.49687 0.260467 0.921154
197 1 10.2687 0.238209 1.49598
198 1 10.6167 0.664115 12.9369
199 1 10.0514 0.729885 2.30701
200 1 10.7867 13.378 0.654071
201 1 11.1928 0.0154305 1.65787
202 1 11.2396 0.629613 12.1074
203 1 11.2343 0.537988 2.52273
204 1 11.8205 13.4255 0.760627
205 1 12.2077 13.2144 1.60334
206 1 11.8347 0.744572 12.8947
207 1 12.4291 0.402086 2.36208
208 1 12.9714 13.252 0.97996
209 1 8.44185 1.59732 0.809076
210 1 9.48529 2.55619 0.822179
211 1 8.98848 1.4509 1.73723
212 1 9.51231 0.869522 0.119475
213 1 9.5343 1.53417 0.835151
214 1 10.1355 3.05948 12.1846
215 1 10.2687 1.9098 2.43671
216 1 10.589 1.21385 0.780399
217 1 11.151 1.14557 1.64778
218 1 11.7417 2.18873 0.782652
219 1 11.3163 1.69095 2.31411
220 1 11.6861 1.00825 0.850172
221 1 12.355 0.984469 1.59646
222 1 12.4195 0.381042 12.2745
223 1 12.3418 1.42288 2.52219
224 1 0.738858 12.9365 0.745845
225 1 8.9872 2.57344 1.60049
226 1 8.93066 2.93107 12.1459
227 1 9.50144 3.19618 3.3402
228 1 10.1469 2.47328 1.57692
229 1 10.1041 1.41751 1.63906
230 1 10.0205 2.50185 11.4676
231 1 10.1048 2.92717 2.41078
232 1 10.7422 2.21109 0.796852
233 1 11.2863 2.38395 1.65985
234 1 12.2196 2.62503 12.1805
235 1 11.2753 2.83674 2.47537
236 1 11.6745 2.8985 0.0524731
237 1 12.3662 2.07292 1.60399
238 1 11.6486 4.04947 12.9145
239 1 12.3592 2.48087 2.52151
240 1 12.9548 1.45884 0.0937784
241 1 9.01272 2.92116 2.47412
242 1 9.38468 4.67426 0.844568
243 1 8.91557 3.70918 1.93461
244 1 9.28859 3.67739 1.00358
245 1 10.0516 3.57253 1.51972
246 1 10.6016 3.99959 0.207294
247 1 10.0639 4.62855 1.62154
248 1 9.92128 3.76251 11.4082
249 1 11.1633 3.41618 1.55743
250 1 12.146 3.69975 12.1932
251 1 11.0885 4.54153 1.60598
252 1 11.7422 4.37594 0.882417
253 1 12.3741 3.06106 1.69718
254 1 12.9324 3.23215 0.870784
255 1 12.1357 3.7012 2.33847
256 1 12.8375 2.64372 0.0179576
257 1 9.58764 1.03589 3.19247
258 1 9.56882 0.250126 3.81385
259 1 10.6954 0.726247 3.17522
260 1 10.6537 0.107437 4.05589
261 1 11.7691 0.556514 3.36882
262 1 11.6613 0.00463345 4.0249
263 1 12.8837 0.326878 3.33777
264 1 12.8183 13.3224 4.10248
265 1 9.06452 1.98895 2.51519
266 1 9.46693 1.3883 4.03631
267 1 10.86 1.75599 3.33238
268 1 10.5646 1.19166 4.04626
269 1 11.8279 1.56898 3.28157
270 1 11.714 1.22304 4.22433
271 1 12.8997 1.3702 3.28448
272 1 13.07 0.888354 4.18228
273 1 9.48459 2.53955 4.06409
274 1 9.72116 1.99133 3.27484
275 1 10.5991 2.79168 3.25747
276 1 10.6321 2.23648 4.22779
277 1 11.7169 2.73889 3.24986
278 1 11.7786 2.37633 4.15193
279 1 12.9056 2.56224 3.25315
280 1 12.7524 1.97827 3.95326
281 1 9.92604 3.98614 2.50542
282 1 9.32647 4.67816 4.03109
283 1 12.835 3.69965 3.17311
284 1 10.5267 3.4029 3.93844
285 1 10.994 3.96787 2.42386
286 1 11.614 3.36409 3.97633
287 1 11.8037 3.91301 3.2537
288 1 12.8381 3.1283 3.91117
289 1 13.3396 4.26799 1.56515
290 1 0.554218 4.91013 12.8731
291 1 13.4163 4.78301 2.43736
292 1 0.426181 4.13879 0.733639
293 1 0.866594 3.97883 1.49219
294 1 1.64264 4.56296 12.9183
295 1 1.06294 4.58264 2.35826
296 1 1.57334 4.05029 0.846372
297 1 2.10396 4.18777 1.57709
298 1 2.71962 4.69109 0.0169127
299 1 2.13275 4.68207 2.48313
300 1 2.76838 4.29515 0.86488
301 1 3.24944 4.08528 1.69214
302 1 3.89126 4.99698 0.0552399
303 1 3.36306 4.8474 2.358
304 1 3.77093 4.34336 0.89049
305 1 13.2906 5.28884 1.43304
306 1 0.628616 6.01921 12.9476
307 1 13.4318 5.73345 2.36615
308 1 0.622387 5.25797 0.803788
309 1 1.13033 5.1663 1.72965
310 1 1.76434 5.70748 12.9118
311 1 0.988385 5.68783 2.52893
312 1 1.67191 5.13849 0.777472
313 1 2.1276 5.31729 1.68259
314 1 2.90345 5.73881 12.906
315 1 2.25266 5.86675 2.51581
316 1 2.71842 5.3469 0.858697
317 1 3.21944 5.35158 1.60335
318 1 3.95404 6.06683 0.0658547
319 1 3.28943 6.01887 2.34293
320 1 3.86046 5.44248 0.92694
321 1 0.141367 6.35212 1.59887
322 1 0.532908 7.04 0.0108245
323 1 13.3647 6.8022 2.45326
324 1 0.691775 6.34423 0.831011
325 1 1.14424 6.31248 1.77523
326 1 1.76104 6.86167 12.9126
327 1 1.17579 6.79784 2.55508
328 1 1.72654 6.25864 0.80158
329 1 2.15942 6.32504 1.67493
330 1 2.90058 6.96873 0.0649793
331 1 2.41088 6.95675 2.48825
332 1 2.70861 6.40602 0.813419
333 1 3.37844 6.53154 1.49623
334 1 3.96969 7.16139 0.0763379
335 1 3.48279 7.08936 2.42904
336 1 3.94356 6.5891 0.868802
337 1 0.0645714 7.31727 1.60632
338 1 0.568382 8.06202 12.9364
339 1 0.06361 7.97716 2.30059
340 1 0.740741 7.52242 0.785286
341 1 1.16709 7.4458 1.57726
342 1 1.65164 7.91392 12.9237
343 1 1.11463 7.76768 2.53936
344 1 1.76202 7.36965 0.844104
345 1 2.2817 7.41765 1.69776
346 1 2.76894 8.13478 0.128461
347 1 2.23604 8.08076 2.5099
348 1 2.74087 7.59403 0.796422
349 1 3.28719 7.69029 1.57987
350 1 3.9324 8.3262 0.0554904
351 1 2.88811 9.17726 3.21803
352 1 3.87646 7.81921 0.909807
353 1 0.471611 4.69361 3.37029
354 1 0.334975 4.0463 4.06091
355 1 1.5519 4.53459 3.24278
356 1 1.73001 4.0341 4.08031
357 1 2.69208 4.75486 3.19995
358 1 2.83989 4.11611 4.226
359 1 3.93145 4.93014 3.17678
360 1 3.72596 4.43944 3.95466
361 1 0.369405 5.83837 3.24277
362 1 0.486468 5.24411 4.03227
363 1 1.57752 5.83666 3.04272
364 1 1.63608 5.28233 3.86415
365 1 2.84292 5.86778 3.36603
366 1 2.66415 5.16711 4.05308
367 1 3.84537 6.0377 3.18472
368 1 3.95714 5.51021 4.06866
369 1 0.410119 7.00649 3.17465
370 1 0.659092 6.48217 3.94618
371 1 1.6541 7.00666 3.30501
372 1 1.72394 6.28153 3.98837
373 1 2.74274 6.94404 3.29768
374 1 2.74348 6.42976 4.08361
375 1 4.98276 7.39869 3.23823
376 1 3.28282 6.50652 4.85538
377 1 0.561439 8.00488 3.26248
378 1 0.58682 7.49482 4.05497
379 1 1.66223 8.09791 3.35082
380 1 1.65429 7.51213 4.11685
381 1 4.08595 8.32463 3.23309
382 1 2.81344 7.58664 4.10597
383 1 3.79294 7.13651 3.15787
384 1 3.8823 7.66449 3.97748
385 1 4.41625 4.37563 1.70095
386 1 5.05922 5.08357 12.8831
387 1 4.44237 4.93551 2.37708
388 1 4.94196 4.56639 0.797126
389 1 5.60866 5.09778 2.35563
390 1 6.1665 4.67849 0.82102
391 1 6.0347 5.37913 3.24054
392 1 5.51896 4.49384 1.52549
393 1 6.69003 4.83347 1.62756
394 1 6.82996 5.38231 12.2203
395 1 6.69049 5.35232 2.55027
396 1 7.32129 4.84134 0.88615
397 1 7.80329 4.83823 1.70162
398 1 8.40909 5.48229 0.063237
399 1 7.79624 5.46654 2.45492
400 1 8.4767 4.85633 0.918837
401 1 4.48651 5.62702 1.65143
402 1 5.0738 6.1297 0.0602872
403 1 4.46704 6.03888 2.4718
404 1 5.04469 5.5918 0.785057
405 1 5.51914 5.82815 1.7375
406 1 6.17983 6.27617 0.131592
407 1 6.22233 6.49613 3.22335
408 1 6.13833 5.65559 0.900107
409 1 6.62212 5.87497 1.66607
410 1 7.26504 5.95116 0.97419
411 1 6.84482 6.50108 2.37648
412 1 7.29929 5.35265 0.0650993
413 1 7.89378 5.99912 1.61979
414 1 8.41642 6.70858 0.0243512
415 1 7.81243 6.57553 2.36219
416 1 8.40411 6.04596 0.7618
417 1 4.55099 6.77195 1.69755
418 1 5.01005 7.2824 0.0858835
419 1 4.45256 7.30874 2.34146
420 1 4.97264 6.69261 0.874971
421 1 5.65508 6.38163 2.54836
422 1 6.12264 7.48269 12.8656
423 1 5.65398 6.85596 1.47527
424 1 6.15847 6.9228 0.702427
425 1 6.66058 7.01104 1.71864
426 1 7.4571 7.63435 0.026111
427 1 6.7436 7.66698 2.4569
428 1 7.2523 7.01374 0.874946
429 1 7.96162 7.13477 1.47644
430 1 8.59649 7.09656 0.889125
431 1 7.91157 7.68387 2.39327
432 1 9.25187 7.09956 1.71948
433 1 4.46065 7.95665 1.63314
434 1 5.02975 8.37127 0.0795476
435 1 4.55572 8.56684 2.45584
436 1 5.03681 7.8914 0.898713
437 1 5.58336 7.44588 2.33857
438 1 6.1216 8.62657 0.114402
439 1 5.66524 8.01219 1.60128
440 1 6.32112 7.9376 0.811013
441 1 6.73302 8.21902 1.65043
442 1 7.23143 8.90159 0.0998009
443 1 6.7952 8.86992 2.47426
444 1 7.379 8.24606 0.769007
445 1 7.82905 8.26903 1.61872
446 1 8.50599 8.24047 0.848417
447 1 7.96574 9.3615 1.60107
448 1 8.55668 7.65427 0.0498221
449 1 4.98193 5.20823 3.14209
450 1 4.95458 3.9843 3.27632
451 1 6.18637 5.8405 4.02404
452 1 6.07097 4.16912 3.4245
453 1 7.27356 5.54261 3.34741
454 1 7.27522 4.83503 3.99327
455 1 8.33443 6.03227 4.14941
456 1 8.35215 3.91078 4.09977
457 1 4.91585 5.66025 3.9934
458 1 4.36934 4.91302 5.66537
459 1 6.07879 7.04915 4.00573
460 1 6.03024 7.63641 3.08263
461 1 7.25456 6.57481 3.29479
462 1 8.49148 6.62075 6.46113
463 1 8.3968 6.49155 3.24616
464 1 7.69167 6.63353 5.7762
465 1 5.10384 7.8851 4.14553
466 1 5.03097 6.21806 3.16223
467 1 6.20549 8.74194 3.22068
468 1 5.10328 6.75498 3.97966
469 1 6.15493 8.07754 3.89869
470 1 7.24821 7.71982 3.25273
471 1 8.38933 7.59772 3.28077
472 1 8.26766 7.1416 4.00897
473 1 5.10755 8.46032 3.26798
474 1 4.46253 7.78086 4.77062
475 1 5.77993 8.10664 4.89487
476 1 6.7981 8.22919 5.05611
477 1 7.40107 8.7803 3.24736
478 1 6.80707 9.2935 4.89355
479 1 7.82928 8.83267 2.36019
480 1 8.2904 8.25369 4.01052
481 1 9.21315 4.25717 2.97269
482 1 9.5218 5.30623 0.101442
483 1 8.85886 4.75576 1.81179
484 1 9.94746 5.1399 2.30644
485 1 10.5314 3.33598 0.807052
486 1 10.0379 5.21708 12.2767
487 1 10.1017 5.77786 1.48466
488 1 10.741 5.29639 12.9246
489 1 10.5492 4.70033 0.712457
490 1 12.2779 4.91614 12.1429
491 1 11.0371 5.05677 2.53504
492 1 11.8423 5.0106 0.0503111
493 1 12.2142 4.40114 1.75129
494 1 12.9065 4.82395 0.0076413
495 1 12.2036 4.82686 2.49869
496 1 12.818 4.22459 0.759004
497 1 8.85774 5.29546 2.4388
498 1 9.52867 6.59146 0.00925278
499 1 9.44347 6.3344 3.19728
500 1 8.93821 5.89879 1.61357
501 1 9.50287 5.91757 0.809115
502 1 10.7643 6.33043 12.9239
503 1 10.0565 6.1529 2.5638
504 1 10.6807 5.7141 0.838512
505 1 11.3143 5.55483 1.74488
506 1 11.3199 6.22449 12.0792
507 1 11.2132 6.12176 2.46754
508 1 11.7562 5.62315 0.847611
509 1 12.2906 5.55023 1.66412
510 1 12.983 6.01378 12.9356
511 1 12.3526 6.04337 2.3834
512 1 12.7246 5.37233 0.721662
513 1 8.88662 6.5084 2.31983
514 1 9.58911 7.67472 0.0126112
515 1 9.02358 7.64475 2.51458
516 1 9.69338 6.97797 0.851015
517 1 10.1716 6.78361 1.91108
518 1 10.6916 7.34529 12.9349
519 1 10.1769 7.55317 2.38699
520 1 10.7148 6.88753 0.947983
521 1 11.2076 6.66317 1.79541
522 1 11.7766 7.18087 12.9143
523 1 11.2532 7.49322 2.4096
524 1 12.9344 6.51881 0.803094
525 1 12.3571 6.63471 1.48782
526 1 12.4863 7.29586 12.2191
527 1 12.3687 7.12499 2.32693
528 1 12.9373 7.05815 12.9505
529 1 9.00502 8.13755 1.60203
530 1 10.2046 8.74917 12.212
531 1 8.45866 8.71501 3.19756
532 1 9.55304 8.07204 0.785297
533 1 10.114 8.03427 1.6065
534 1 10.6868 8.34989 12.9256
535 1 10.102 8.6111 2.2516
536 1 10.7493 7.90054 0.817352
537 1 11.2735 7.9289 1.56443
538 1 11.8384 7.70987 0.63843
539 1 11.2909 8.53119 2.47049
540 1 11.6668 6.66341 0.895642
541 1 12.4609 7.75111 1.53543
542 1 12.857 8.34911 12.9448
543 1 12.8966 8.15347 3.27459
544 1 12.9596 7.67648 0.753468
545 1 9.49449 5.18372 3.26187
546 1 9.54271 3.68162 4.02786
547 1 10.4377 5.07383 3.22724
548 1 10.601 4.05376 3.27259
549 1 11.6666 5.12891 3.16943
550 1 11.6699 4.48806 3.93554
551 1 12.8438 4.84251 3.1716
552 1 12.7535 4.30998 4.03977
553 1 9.45587 7.00209 3.99716
554 1 9.40027 5.80497 3.96152
555 1 10.6801 6.38719 3.39854
556 1 10.5215 5.69953 3.96992
557 1 11.749 6.18945 3.30804
558 1 11.5662 5.55177 4.19476
559 1 12.8045 5.99067 3.35575
560 1 12.735 5.27755 4.02132
561 1 9.60255 8.68454 3.21607
562 1 9.48493 7.47375 3.24709
563 1 10.6014 7.3614 3.20622
564 1 10.46 6.87291 4.19357
565 1 11.7528 7.17948 3.20677
566 1 11.6603 6.69334 4.0771
567 1 12.8217 7.02617 3.24071
568 1 12.8846 6.40996 4.09369
569 1 9.06354 8.68569 2.40943
570 1 8.83458 8.19642 4.71216
571 1 10.6545 8.46356 3.18242
572 1 10.6704 7.92116 3.94431
573 1 12.426 8.221 2.52721
574 1 11.7486 8.77064 4.10378
575 1 12.8105 7.47919 4.10622
576 1 12.1871 7.79886 4.94838
577 1 0.121215 8.74284 1.61708
578 1 0.084103 9.36834 12.0653
579 1 0.588716 9.18077 3.25606
580 1 0.58132 8.52548 0.94365
581 1 1.34755 8.53465 1.69106
582 1 1.76111 9.07029 0.0557551
583 1 1.09028 8.98923 2.47006
584 1 1.63798 8.58901 0.791176
585 1 2.34498 8.4964 1.68597
586 1 2.82623 9.30415 12.9414
587 1 2.24449 9.24728 2.42844
588 1 2.79813 8.842 0.828734
589 1 3.31431 8.82669 1.71371
590 1 3.86097 9.50846 12.8512
591 1 3.39447 8.18376 2.46456
592 1 3.82551 9.00362 0.770167
593 1 0.0552326 9.10166 2.5077
594 1 0.609885 9.67663 0.738423
595 1 13.4049 10.2331 2.60348
596 1 0.629634 8.97706 0.101956
597 1 1.16644 9.59548 1.56022
598 1 1.80572 10.2412 12.89
599 1 1.12881 10.0307 2.57071
600 1 1.71261 9.77214 0.816921
601 1 2.31282 9.71805 1.66568
602 1 2.86209 10.4095 0.131206
603 1 2.27057 10.4507 2.29882
604 1 2.75758 9.93934 0.900584
605 1 3.452 10.0418 1.55905
606 1 3.97195 10.7264 0.103962
607 1 3.34473 10.4083 2.39383
608 1 3.90463 10.1126 0.763452
609 1 0.0598297 10.7266 1.65815
610 1 0.584886 11.9159 0.926604
611 1 0.0267717 11.4256 2.36097
612 1 0.558421 10.3244 0.0685908
613 1 0.609997 10.9005 0.819397
614 1 2.36976 11.5149 12.2053
615 1 1.13846 11.3082 2.37375
616 1 1.17215 10.7847 1.6186
617 1 2.40146 10.9169 1.43285
618 1 2.93882 11.9971 0.511346
619 1 2.12323 11.4516 2.43779
620 1 1.64402 10.755 0.844632
621 1 3.32531 11.0598 1.58364
622 1 3.98847 11.7558 12.9167
623 1 3.44133 11.5791 2.38761
624 1 4.00458 11.2562 0.853425
625 1 0.0312285 11.9338 1.62102
626 1 0.110989 12.602 12.0856
627 1 0.0361747 12.5455 2.34136
628 1 0.616396 12.5194 12.9308
629 1 1.23212 12.0196 1.58858
630 1 1.82383 0.211157 12.8755
631 1 1.25086 12.4616 2.29451
632 1 1.76158 11.895 0.658718
633 1 2.32725 11.9434 1.50085
634 1 1.7643 12.4558 12.7808
635 1 2.30633 12.4683 2.50632
636 1 2.90852 12.7145 12.9357
637 1 3.32678 12.2333 1.5749
638 1 3.96305 13.3272 0.753861
639 1 3.96903 12.703 3.1366
640 1 3.9859 12.2247 0.847102
641 1 0.560067 9.80641 4.0532
642 1 0.570285 8.56193 3.96528
643 1 1.70742 9.22768 3.23774
644 1 1.72976 8.70519 4.09625
645 1 2.91596 8.07575 3.18043
646 1 2.80533 8.68517 4.02033
647 1 3.44872 9.41426 2.36094
648 1 3.83311 9.49908 3.26795
649 1 0.466619 10.4327 3.27699
650 1 0.0246086 9.74891 4.95967
651 1 1.85691 10.2705 3.12222
652 1 1.7161 9.75702 4.0161
653 1 2.85946 10.3724 3.36764
654 1 2.88748 9.75205 4.01683
655 1 3.87198 10.6187 3.30648
656 1 4.05337 9.94214 4.02373
657 1 0.56543 11.4252 3.17768
658 1 0.577795 10.9416 4.06508
659 1 1.7734 11.2409 3.26578
660 1 1.61617 10.7911 4.19818
661 1 2.84769 11.4916 3.05628
662 1 2.76853 10.9875 4.12727
663 1 3.98326 11.6847 3.25525
664 1 3.88926 11.1497 4.10372
665 1 0.50118 13.0741 4.10756
666 1 0.580765 12.5306 3.09937
667 1 1.55781 12.4955 3.25453
668 1 1.70504 11.9442 3.92179
669 1 2.83525 12.6841 3.16945
670 1 2.71804 11.9833 3.87928
671 1 3.85041 13.1993 3.9623
672 1 3.7756 12.1895 4.14104
673 1 4.36728 9.01436 1.64211
674 1 5.05856 9.4759 0.0579526
675 1 4.53337 9.67849 2.53087
676 1 4.99311 9.08216 0.857365
677 1 5.60759 9.11773 1.5155
678 1 6.18982 10.9076 12.9182
679 1 5.70435 9.73722 2.45731
680 1 6.10866 9.26158 0.685608
681 1 6.70139 9.24079 1.58119
682 1 7.29588 10.0411 0.094902
683 1 6.80931 9.8741 2.4288
684 1 7.34925 9.35169 0.810303
685 1 8.46655 9.25766 0.791424
686 1 8.43935 9.81854 12.9477
687 1 7.96243 10.4483 1.59553
688 1 8.36851 8.69355 12.8653
689 1 4.59509 10.0825 1.61632
690 1 5.09475 10.7643 0.0272225
691 1 4.42025 10.7071 2.36878
692 1 5.01525 10.1639 0.679101
693 1 5.58665 10.1996 1.71042
694 1 5.58397 10.7616 12.1306
695 1 5.52835 10.9146 2.58495
696 1 6.18562 9.82692 12.8918
697 1 6.10718 10.3229 0.790937
698 1 7.27199 11.0204 12.9483
699 1 6.82135 10.8655 2.40287
700 1 6.67384 10.2101 1.59407
701 1 7.22563 10.5177 0.94422
702 1 8.39352 10.9946 0.00152103
703 1 7.90191 11.0709 2.38929
704 1 8.41986 10.3727 0.763269
705 1 4.66135 11.1872 1.56094
706 1 5.14948 11.8722 12.9308
707 1 4.42932 11.8288 2.34158
708 1 5.13779 11.4821 0.844998
709 1 5.69397 11.1457 1.52853
710 1 6.27158 11.9739 12.935
711 1 5.52088 11.964 2.44871
712 1 6.34003 11.5002 0.826409
713 1 6.64593 11.4008 1.78486
714 1 7.35532 12.1432 12.9071
715 1 6.74651 12.0688 2.48785
716 1 7.3747 11.4946 0.825031
717 1 7.8204 11.565 1.62536
718 1 8.54258 12.1662 0.103798
719 1 7.84867 12.1092 2.46126
720 1 8.40857 11.6439 0.715355
721 1 4.52355 12.3605 1.62868
722 1 4.99082 12.9816 12.8266
723 1 4.55074 0.582408 2.45203
724 1 5.11919 12.5205 0.75635
725 1 5.61998 12.3561 1.65743
726 1 6.18089 13.2471 0.146582
727 1 5.62409 13.1522 2.33258
728 1 6.27564 12.5712 0.77813
729 1 6.65401 12.5008 1.65804
730 1 7.25492 13.2728 0.00855586
731 1 6.63967 13.2843 2.44769
732 1 7.33857 12.6867 0.872024
733 1 7.80062 12.6826 1.65398
734 1 8.43266 13.3864 0.0362159
735 1 7.70165 13.3272 2.34931
736 1 8.36065 12.8384 0.850972
737 1 5.21384 9.69157 3.20567
738 1 5.09043 9.05217 3.96988
739 1 6.29613 9.77047 3.28035
740 1 6.23818 9.11865 4.08908
741 1 7.79496 9.95739 2.43311
742 1 7.39115 9.34789 4.12252
743 1 8.52261 9.81162 3.20714
744 1 9.03461 9.31251 4.8365
745 1 4.93566 10.8018 3.28135
746 1 5.10051 10.1666 4.04666
747 1 6.17844 10.8838 3.27503
748 1 6.26005 10.3391 4.07392
749 1 7.28788 11.1074 3.28351
750 1 7.42657 10.4562 4.06197
751 1 8.44371 10.8065 3.31184
752 1 8.57204 10.3688 4.14087
753 1 4.96376 11.9545 3.31396
754 1 5.19992 11.2887 4.08493
755 1 6.03528 11.9793 3.19901
756 1 6.30454 11.4371 3.92837
757 1 7.31954 12.1847 3.28881
758 1 7.35489 11.6396 4.06598
759 1 8.34707 12.2349 3.32039
760 1 8.42205 11.5844 3.83818
761 1 5.06642 0.0719557 4.1284
762 1 5.07651 12.4068 4.06712
763 1 6.09185 12.9563 3.30573
764 1 6.27843 12.4731 4.18802
765 1 7.17028 13.1793 3.22807
766 1 7.29162 12.7925 4.08397
767 1 8.28657 13.367 3.24597
768 1 8.41799 12.8586 4.04044
769 1 9.05468 9.30223 1.58947
770 1 9.55385 9.17068 0.852942
771 1 8.9329 9.7458 2.36137
772 1 9.49249 9.8258 12.8942
773 1 10.1872 9.24161 1.56783
774 1 10.2477 9.79254 12.2481
775 1 10.1222 9.71023 2.37955
776 1 10.6379 9.03773 0.740958
777 1 11.2915 8.94022 1.5555
778 1 11.8492 9.57974 0.0291647
779 1 11.3932 9.57082 2.59901
780 1 11.8535 8.90887 0.769627
781 1 12.3677 8.67763 1.71295
782 1 13.0031 9.34242 12.8849
783 1 12.446 9.32494 2.34471
784 1 12.8554 8.90613 0.784898
785 1 9.06264 10.4609 1.58241
786 1 9.45734 10.9366 0.080829
787 1 8.95189 10.9051 2.44117
788 1 9.52242 10.2647 0.758858
789 1 10.0889 10.2873 1.54734
790 1 11.149 9.97421 1.76694
791 1 10.1531 10.8575 2.41954
792 1 10.7676 9.62188 0.0807429
793 1 11.6851 9.94943 0.943418
794 1 11.7194 10.5826 0.130073
795 1 11.8896 10.5848 3.29327
796 1 13.0622 9.87013 0.930424
797 1 12.4457 9.92595 1.59044
798 1 12.8146 10.4076 0.0623658
799 1 12.4383 10.5306 2.39735
800 1 0.267448 9.80377 1.66524
801 1 8.94372 11.573 1.49936
802 1 9.58118 12.1005 12.9109
803 1 8.92163 12.0068 2.47732
804 1 9.59174 11.5442 0.782055
805 1 10.0835 11.3355 1.62241
806 1 10.6166 12.0261 12.8665
807 1 10.0199 12.0203 2.23399
808 1 10.6337 10.2379 0.701154
809 1 10.7068 11.3601 0.791332
810 1 11.8298 11.0172 0.888734
811 1 11.1472 11.6831 2.465
812 1 11.1694 11.237 1.53809
813 1 12.3876 11.1798 1.60093
814 1 12.9322 11.6056 0.064835
815 1 12.2835 11.7378 2.47574
816 1 12.9784 10.9982 0.809549
817 1 8.98313 12.5236 1.64025
818 1 9.52547 13.2036 0.110667
819 1 8.84355 13.1213 2.3845
820 1 9.49698 12.613 0.813404
821 1 10.173 12.6429 1.67761
822 1 10.5539 12.9527 12.791
823 1 10.0803 13.1652 2.45108
824 1 10.6913 12.4103 0.820066
825 1 11.2633 12.2523 1.61119
826 1 13.3752 12.004 11.2755
827 1 11.22 12.8215 2.35542
828 1 11.8556 12.2676 0.663247
829 1 12.2833 12.2163 1.60784
830 1 11.8876 12.9723 0.00187567
831 1 12.3959 12.814 2.58899
832 1 12.9398 12.1872 0.800241
833 1 9.63826 9.88558 3.12212
834 1 10.0626 9.02218 4.76259
835 1 10.7625 9.72339 3.20401
836 1 10.6918 9.04729 3.95287
837 1 11.3581 10.6084 2.31597
838 1 11.8699 8.22173 3.31205
839 1 12.9286 9.33209 3.3262
840 1 12.8447 8.68686 4.0993
841 1 9.62448 10.9536 3.16012
842 1 9.60543 10.3243 3.9595
843 1 10.8005 10.727 3.21504
844 1 10.6526 10.29 4.0493
845 1 11.8352 10.0163 4.03321
846 1 11.9268 9.35629 3.36247
847 1 12.8425 10.458 3.28969
848 1 12.9768 9.96682 4.17234
849 1 9.65428 12.0725 3.07234
850 1 9.51254 11.4291 3.91001
851 1 10.6554 11.9545 3.19146
852 1 10.6991 11.3172 4.02233
853 1 11.7105 11.642 3.34098
854 1 11.8462 11.1313 4.14083
855 1 12.8303 11.5226 3.18233
856 1 12.9495 10.9695 4.08129
857 1 9.41516 13.0932 3.20037
858 1 9.52547 12.5207 3.91639
859 1 10.633 12.9814 3.19593
860 1 10.7846 12.4122 4.0992
861 1 11.7458 12.771 3.17003
862 1 11.8122 12.3472 3.98137
863 1 12.9855 12.7099 3.32473
864 1 12.8786 12.0981 3.95698
865 1 13.4351 13.1928 4.90054
866 1 13.4107 0.315475 5.68977
867 1 1.19416 13.1051 4.74577
868 1 1.11077 0.154405 5.74715
869 1 2.32199 12.4391 5.70633
870 1 2.21416 13.0084 4.89311
871 1 3.45293 13.3275 4.97209
872 1 3.3886 0.382818 5.64483
873 1 0.15113 0.913562 4.98197
874 1 13.3363 1.49702 5.80167
875 1 1.15739 0.72477 4.92843
876 1 1.16689 1.35008 5.72366
877 1 2.27576 0.200467 5.59318
878 1 2.29901 1.21927 5.58608
879 1 2.9874 0.727728 4.0205
880 1 3.41386 1.49236 5.66745
881 1 0.0196738 1.93969 4.81816
882 1 13.3178 2.4817 5.59403
883 1 1.09836 1.87581 4.80125
884 1 0.96315 2.41929 5.6461
885 1 2.09753 1.77051 4.81919
886 1 2.22274 2.3331 5.70512
887 1 3.32856 2.61873 5.68839
888 1 3.85867 2.5949 6.43327
889 1 13.2749 2.95863 4.69513
890 1 0.0571067 3.55251 5.61981
891 1 1.13532 3.10222 4.87654
892 1 1.08747 3.62258 5.62569
893 1 2.21605 2.91766 5.04442
894 1 2.16019 3.56809 5.74015
895 1 3.28537 3.09913 4.85699
896 1 3.26975 3.68561 5.74257
897 1 13.4026 13.2019 8.04422
898 1 0.493256 0.195728 6.54686
899 1 0.625627 13.0392 7.11057
900 1 1.02134 13.0607 8.02312
901 1 1.74124 0.0750002 6.49602
902 1 1.6933 12.9732 7.37755
903 1 2.33396 12.9395 8.03366
904 1 2.82108 0.0816968 6.52383
905 1 2.97481 12.9467 7.40848
906 1 3.39244 13.3813 8.29978
907 1 3.92048 0.43566 6.4881
908 1 4.01134 13.217 7.3263
909 1 0.0317289 0.842714 8.14404
910 1 0.50833 1.30172 6.51048
911 1 0.570642 0.773565 7.35613
912 1 1.21771 0.785349 7.93104
913 1 1.71643 1.17591 6.44546
914 1 1.83167 0.615564 7.26438
915 1 2.38072 0.682824 8.09078
916 1 2.8168 1.22714 6.45696
917 1 2.93443 0.698117 7.26299
918 1 2.91541 0.267682 9.55468
919 1 3.78331 1.95025 7.30721
920 1 3.88664 0.926165 7.36654
921 1 13.3916 1.91518 8.15282
922 1 0.546862 2.5359 6.45642
923 1 0.542247 1.91286 7.22917
924 1 1.06527 1.80975 8.1531
925 1 1.58654 2.41032 6.42623
926 1 1.58228 1.84092 7.1549
927 1 2.16172 1.85862 7.9513
928 1 2.67832 2.49091 6.58591
929 1 2.72249 1.71389 7.25217
930 1 3.53988 1.51305 8.87439
931 1 3.27946 2.96922 8.07737
932 1 3.27742 1.9282 8.03559
933 1 0.0175474 3.03507 7.97662
934 1 0.646832 3.7757 6.50031
935 1 0.553214 3.08862 7.2922
936 1 1.1312 2.79793 8.05968
937 1 1.61942 3.47096 6.45836
938 1 1.7528 2.93698 7.33377
939 1 2.31574 2.92389 8.05605
940 1 2.85173 3.66773 6.43888
941 1 2.87009 3.08966 7.15582
942 1 3.44017 3.5868 8.89707
943 1 4.46641 3.82423 5.76495
944 1 4.008 1.48729 6.38569
945 1 4.55108 0.0763202 4.85444
946 1 4.52189 0.590225 5.65347
947 1 5.66985 0.20507 4.91936
948 1 5.54144 0.868271 5.6456
949 1 6.73697 0.437524 4.91918
950 1 6.79635 0.987659 5.7843
951 1 7.85054 0.438482 4.97512
952 1 8.51576 0.973427 6.55959
953 1 3.46635 0.999698 4.88141
954 1 3.93606 3.24031 4.02534
955 1 5.62447 1.27543 4.83795
956 1 5.71193 1.85092 5.73938
957 1 6.75456 1.43429 4.84853
958 1 6.55832 3.22402 5.68187
959 1 7.9195 1.5978 4.94099
960 1 7.82658 2.21859 5.75321
961 1 4.53989 1.78458 5.67912
962 1 5.11451 3.2864 7.33552
963 1 5.76373 2.44235 4.85284
964 1 4.94526 2.80958 6.44872
965 1 6.79201 2.63781 5.04157
966 1 6.66583 4.23324 5.53973
967 1 7.71987 2.64265 4.76103
968 1 7.71654 3.22577 5.69547
969 1 5.46486 3.56102 4.92105
970 1 3.95197 3.77692 6.40848
971 1 4.99139 4.55182 3.97391
972 1 5.62596 4.682 4.82698
973 1 6.84651 3.69541 4.7572
974 1 6.83294 4.80388 4.83761
975 1 7.61956 4.31363 5.72723
976 1 8.3847 4.43991 6.33414
977 1 4.44205 13.331 8.2036
978 1 5.00699 0.6273 6.51217
979 1 5.02669 0.128138 7.28152
980 1 5.5553 0.17893 8.00555
981 1 6.15064 0.850681 6.45622
982 1 6.22506 0.123865 7.2166
983 1 6.71766 13.2038 9.02157
984 1 7.97478 1.04711 5.67722
985 1 6.72317 0.3228 7.99078
986 1 7.83675 0.424458 8.15883
987 1 8.39137 0.346841 7.31591
988 1 8.40099 13.2899 6.50698
989 1 4.4984 1.05443 8.05399
990 1 5.06271 1.75584 6.55142
991 1 5.04291 1.22036 7.40983
992 1 5.75933 1.21477 8.1964