data.lammps (converted from cfg to data.lammps)
    
2298  atoms
1  atom types
0.0   13.4375  xlo xhi
0.0   13.4375  ylo yhi
0.0   12.952  zlo zhi
0.0  0.0 0.0 xy xz yz
    
    
    
Atoms
  
1 1 0.0806863 13.2136 1.60282
2 1 0.548727 0.248156 0.0822369
3 1 0.0396557 0.937395 1.5857
4 1 1.27967 13.3947 1.85878
5 1 1.67782 0.0651501 0.881406
6 1 1.22266 13.377 11.3258
7 1 1.1018 0.545032 2.57674
8 1 2.20079 1.17223 1.60142
9 1 2.28581 13.3817 1.58209
10 1 2.77208 0.0568769 0.765586
11 1 2.35417 0.680509 2.40899
12 1 2.76498 0.761773 0.0378772
13 1 3.38164 13.0834 2.41367
14 1 3.85516 0.916972 0.0295408
15 1 3.35301 0.772695 2.38853
16 1 3.38565 0.210868 1.62739
17 1 12.9441 0.80351 0.741852
18 1 1.00513 2.12472 11.2488
19 1 0.106375 1.36297 2.39521
20 1 0.543861 0.968425 0.822014
21 1 1.21269 1.0488 1.65704
22 1 0.720789 1.45652 12.9289
23 1 1.02279 2.07779 1.45242
24 1 1.75414 1.56929 12.9176
25 1 1.60964 1.05152 0.73241
26 1 2.24765 1.60101 12.0939
27 1 2.303 1.71852 2.35826
28 1 2.85973 1.81042 3.20154
29 1 3.29642 1.36724 1.4635
30 1 4.0589 1.40822 0.975681
31 1 5.03541 1.92829 3.12892
32 1 5.67806 0.403263 1.69486
33 1 12.8638 1.84158 0.786407
34 1 0.578514 2.51522 12.8733
35 1 0.0140679 2.5048 2.42149
36 1 13.3722 1.99826 1.62535
37 1 2.13048 2.27643 1.62896
38 1 1.67439 2.71933 12.8706
39 1 1.12525 2.80942 2.34576
40 1 2.77181 2.46825 0.920637
41 1 2.76241 1.28325 0.757919
42 1 2.71575 2.92244 12.9428
43 1 2.15485 2.88855 2.33117
44 1 3.33562 2.40949 1.61719
45 1 3.36377 1.73733 2.40181
46 1 3.94287 2.48778 0.767157
47 1 2.70432 2.89887 3.29176
48 1 3.82555 1.88144 0.043975
49 1 0.0936895 3.14087 1.62096
50 1 0.665875 3.16147 0.718809
51 1 13.3659 3.71183 2.30407
52 1 1.11301 3.36513 1.62658
53 1 0.515312 2.14011 0.767441
54 1 1.66253 3.7672 12.8997
55 1 1.0497 3.87087 2.50281
56 1 1.77473 3.28054 0.947827
57 1 2.14707 3.58413 1.72793
58 1 2.86009 3.96133 0.150129
59 1 2.32265 4.08311 2.49945
60 1 2.7526 3.54598 0.918683
61 1 3.37377 3.57681 1.72795
62 1 4.55961 4.13471 12.0593
63 1 3.4481 4.21118 2.66085
64 1 3.98537 3.6194 0.828813
65 1 13.4162 0.281006 2.31031
66 1 0.396309 0.354562 3.22444
67 1 1.75932 0.639781 3.17426
68 1 1.6673 0.0928869 4.0315
69 1 2.83745 0.687515 3.28375
70 1 2.83803 0.124241 4.0367
71 1 3.8471 1.97233 3.29758
72 1 3.98306 0.831697 3.31943
73 1 0.74265 1.5038 3.32127
74 1 0.634327 0.891046 3.99718
75 1 1.17099 1.69862 2.37661
76 1 1.66288 1.19082 4.15446
77 1 1.83847 1.73406 3.15678
78 1 2.40198 1.06458 4.92531
79 1 3.99936 2.58434 4.01191
80 1 4.40411 2.0656 2.51612
81 1 0.608258 2.77272 3.19728
82 1 0.438611 2.12557 3.79258
83 1 1.76468 2.84819 3.29371
84 1 1.51332 2.29928 4.06006
85 1 2.91942 2.39802 4.04312
86 1 3.42197 2.47183 4.87711
87 1 3.29031 2.96875 2.30802
88 1 4.50573 2.51946 4.94904
89 1 0.380502 3.8611 3.15147
90 1 0.597231 3.31216 4.01809
91 1 1.71481 4.09306 3.18918
92 1 1.60785 3.49321 3.98352
93 1 2.89605 4.02755 3.30851
94 1 2.69312 3.53234 4.06407
95 1 4.39366 4.10547 2.43166
96 1 3.83298 3.05003 3.11466
97 1 4.56003 0.329154 1.60272
98 1 5.16445 0.374596 0.814936
99 1 4.57425 1.47631 1.76913
100 1 5.6613 1.52629 1.49268
101 1 5.61913 0.930124 2.40393
102 1 6.20606 0.854211 12.8934
103 1 5.10935 13.1938 3.21399
104 1 6.75525 0.265514 1.63107
105 1 6.69709 1.3511 1.70188
106 1 7.33079 0.913706 12.8616
107 1 6.81989 0.832413 2.56996
108 1 7.73135 0.070483 1.5908
109 1 7.35661 0.270767 0.710517
110 1 7.68202 1.33494 11.305
111 1 8.04257 0.674046 2.4703
112 1 8.54077 0.0358417 0.750966
113 1 4.96295 0.82274 12.9487
114 1 4.41012 2.03405 12.1985
115 1 3.94809 1.27754 4.06239
116 1 5.12598 1.49766 0.749365
117 1 6.15693 1.94837 12.9048
118 1 6.20065 2.79028 0.723942
119 1 5.6663 2.05735 2.28537
120 1 5.01084 1.97664 12.9201
121 1 6.25775 1.53655 0.701642
122 1 6.70488 1.96906 12.1121
123 1 6.79979 2.07631 2.36585
124 1 7.22098 1.33003 0.907299
125 1 7.84004 1.21874 1.69527
126 1 8.51395 1.74048 12.9467
127 1 7.87751 1.8289 2.53396
128 1 7.96136 1.94407 12.1317
129 1 4.43443 2.47935 1.62699
130 1 4.95031 3.09815 12.8606
131 1 4.53716 3.14773 2.51483
132 1 5.14068 2.55592 0.692457
133 1 5.48485 2.69064 1.46812
134 1 6.26814 3.08979 12.8106
135 1 5.61628 3.10787 2.51836
136 1 6.76889 2.56515 1.65973
137 1 7.94089 2.94472 2.31393
138 1 7.90953 3.05016 12.1102
139 1 6.72914 3.22543 2.42517
140 1 7.28745 1.92979 12.8562
141 1 7.21427 2.31047 0.736442
142 1 8.48738 2.90988 0.0752278
143 1 7.6672 3.41476 1.52404
144 1 7.8756 2.349 1.61698
145 1 4.48266 3.51674 1.58477
146 1 5.06759 4.3476 12.9284
147 1 4.51468 4.65771 1.66993
148 1 5.00836 3.70004 0.731481
149 1 5.51175 3.58531 1.65458
150 1 6.26497 4.31062 12.9333
151 1 5.51462 4.26262 2.47147
152 1 6.08105 3.80007 0.746148
153 1 7.32802 4.23791 0.103527
154 1 6.83407 4.13113 12.1221
155 1 6.59476 3.71407 1.65076
156 1 7.09956 3.5955 0.739116
157 1 7.78326 4.08833 2.34276
158 1 8.39123 4.00354 0.0794588
159 1 8.33599 3.95746 3.28016
160 1 8.30655 3.4412 0.899867
161 1 5.05281 0.820529 3.14129
162 1 4.55314 13.1244 2.31893
163 1 6.17927 0.946465 3.21721
164 1 6.29155 0.450605 4.03701
165 1 7.51358 0.80596 3.26824
166 1 7.33142 0.159486 3.97277
167 1 8.55578 0.692174 3.37065
168 1 8.4785 0.0313913 4.04202
169 1 5.12693 1.40474 3.94824
170 1 4.605 1.55661 4.7849
171 1 6.11937 1.99587 3.15085
172 1 6.14647 1.58693 4.03979
173 1 7.17962 2.03524 3.22549
174 1 7.30884 1.41728 3.95694
175 1 8.52056 1.80788 3.18819
176 1 8.41704 1.29854 4.07949
177 1 5.07694 3.11499 3.29161
178 1 4.97841 2.48437 3.98521
179 1 6.23488 3.11934 3.30139
180 1 6.02363 2.5782 4.10892
181 1 7.28609 3.03063 3.17367
182 1 7.21123 2.51158 4.07122
183 1 8.33069 2.83813 3.27797
184 1 8.35604 2.24644 4.0998
185 1 4.90482 3.62486 4.03446
186 1 4.38643 3.55988 4.83041
187 1 6.66151 4.29802 2.51214
188 1 6.08889 3.67399 4.11629
189 1 7.26821 4.20259 3.27603
190 1 7.23366 3.57119 4.10629
191 1 8.26551 5.14023 3.34686
192 1 7.77048 3.66348 4.78095
193 1 8.95014 13.3363 1.55648
194 1 9.04111 0.566517 12.0013
195 1 9.071 0.501762 2.40589
196 1 9.682 0.04135 0.883632
197 1 10.1049 13.1629 1.7293
198 1 10.6174 0.237588 12.897
199 1 10.0035 0.438179 2.34975
200 1 10.6404 13.0598 0.74795
201 1 11.0921 13.1329 1.54637
202 1 11.2517 0.165242 12.1397
203 1 11.2202 0.173927 2.50056
204 1 11.703 13.1588 0.695208
205 1 12.2243 13.1001 1.49992
206 1 11.7079 0.282256 12.9229
207 1 12.4035 0.286367 2.37735
208 1 12.9601 13.0613 0.923243
209 1 8.29633 1.14655 0.686633
210 1 10.2298 1.91032 1.58812
211 1 8.84057 0.997143 1.64707
212 1 9.6012 0.518682 12.9136
213 1 9.40716 1.08095 0.906612
214 1 10.0726 2.51269 12.1038
215 1 10.1916 1.59711 2.36739
216 1 10.8069 0.861488 0.853023
217 1 11.3776 0.68553 1.70466
218 1 11.8532 1.82207 0.770088
219 1 11.2231 1.40552 2.33811
220 1 11.822 0.800063 0.718021
221 1 12.3039 0.808467 1.56491
222 1 12.4196 0.257462 12.0924
223 1 12.5448 1.35983 2.64951
224 1 0.739259 13.2213 0.894191
225 1 8.93595 2.1448 1.51418
226 1 9.05748 2.7409 12.1715
227 1 9.50175 2.70082 3.33794
228 1 10.0011 2.70176 2.41076
229 1 10.1432 0.790324 1.48276
230 1 10.0711 1.98738 11.2045
231 1 10.0986 3.11054 1.69254
232 1 10.7115 1.94179 0.854322
233 1 11.3182 2.00617 1.64445
234 1 12.2044 2.52061 12.1732
235 1 11.0795 2.50824 2.4495
236 1 11.7307 2.4307 0.0679625
237 1 12.3043 1.81547 1.84786
238 1 11.8023 3.55669 0.0294146
239 1 12.3533 2.57897 2.38485
240 1 12.9348 1.29227 12.8287
241 1 8.97847 2.72525 2.3677
242 1 9.4904 3.82797 12.9247
243 1 8.92396 3.3164 1.54778
244 1 9.5637 2.74734 0.109077
245 1 10.624 3.11106 0.868855
246 1 10.6818 3.52807 12.9507
247 1 9.98027 4.32755 1.67274
248 1 10.1037 3.11513 11.2643
249 1 11.2448 3.65422 2.38318
250 1 12.2671 3.64534 12.1613
251 1 11.1492 4.195 1.74715
252 1 11.7697 4.05624 0.867117
253 1 12.3102 2.88319 1.59115
254 1 12.9774 3.04275 0.933015
255 1 12.3413 3.615 2.398
256 1 12.944 2.53064 0.0389822
257 1 9.64381 0.549669 3.35988
258 1 9.74095 13.2698 4.08869
259 1 10.6586 0.309565 3.14087
260 1 10.7539 13.1824 3.97815
261 1 11.8542 0.32906 3.2087
262 1 11.7042 13.0981 3.91635
263 1 12.8929 0.143385 3.35612
264 1 12.8625 13.2354 4.2747
265 1 9.05671 1.68118 2.34707
266 1 9.60038 0.998444 4.1893
267 1 10.7031 1.43981 3.25324
268 1 10.6848 0.845973 3.98128
269 1 11.7434 1.32316 3.10036
270 1 11.8348 0.823021 4.07005
271 1 13.1188 1.25697 3.26747
272 1 12.7581 0.979669 4.06952
273 1 9.52453 2.02479 4.01009
274 1 9.50893 1.60293 3.15246
275 1 10.6909 2.61428 3.29362
276 1 10.6426 2.01689 4.03444
277 1 11.7689 2.41211 3.18646
278 1 11.816 1.90436 4.03751
279 1 12.8873 2.46816 3.12194
280 1 12.7919 1.99032 4.01665
281 1 10.094 3.79721 2.50395
282 1 9.40476 3.76859 3.1012
283 1 12.82 3.56118 3.30802
284 1 10.5352 3.19196 4.02309
285 1 10.5878 3.87 3.2348
286 1 11.6694 2.94996 4.10176
287 1 11.7294 3.58558 3.3044
288 1 12.8343 3.04437 4.0035
289 1 13.3321 4.45671 1.63797
290 1 0.626072 4.89852 0.0151476
291 1 13.4043 4.81388 2.56562
292 1 0.54599 4.36325 0.885523
293 1 1.06229 4.40563 1.66678
294 1 1.80189 5.12151 0.00839826
295 1 1.11323 4.98056 2.50023
296 1 1.61169 4.42224 0.672994
297 1 1.96507 4.63219 1.51026
298 1 2.78268 5.1199 0.041872
299 1 2.27762 5.11081 2.4131
300 1 2.7741 4.69295 0.853897
301 1 3.26613 4.53418 1.72686
302 1 3.84585 5.294 12.8807
303 1 3.25272 5.22685 2.48638
304 1 3.98356 4.23563 12.9393
305 1 13.3398 5.47034 1.60273
306 1 0.565095 6.03341 12.9366
307 1 13.3412 5.87911 2.54792
308 1 0.638051 5.41687 0.749242
309 1 0.969825 5.46048 1.69794
310 1 1.7797 6.1694 0.114942
311 1 1.09186 6.03035 2.47767
312 1 1.63172 5.59796 0.94164
313 1 2.24668 5.65873 1.6262
314 1 2.86403 6.14014 12.8656
315 1 2.30242 6.30971 2.43324
316 1 2.807 5.80473 0.875288
317 1 3.41115 5.58413 1.574
318 1 3.91534 6.40175 0.0259612
319 1 3.39623 6.25611 2.36873
320 1 3.87027 5.78857 0.809301
321 1 0.0495642 6.3819 1.63731
322 1 0.609978 7.12925 0.05202
323 1 0.125556 7.07311 2.49137
324 1 0.608794 6.5043 0.89138
325 1 1.19148 6.68287 1.63426
326 1 1.70611 7.30832 0.10656
327 1 1.20347 7.1314 2.48759
328 1 1.7207 6.68806 0.83358
329 1 2.20464 6.83294 1.68803
330 1 2.86885 7.40015 0.0233115
331 1 2.34652 7.50908 2.61432
332 1 2.77355 6.86546 0.858811
333 1 3.37557 6.84463 1.66177
334 1 3.90118 7.53126 12.9369
335 1 3.35009 7.55435 2.41572
336 1 3.87399 6.86158 0.805892
337 1 13.4011 7.51566 1.67008
338 1 0.583448 8.23645 0.0846123
339 1 0.0294033 8.13061 2.46523
340 1 0.600598 7.59627 0.830612
341 1 1.11285 7.68472 1.65174
342 1 1.73141 8.42679 12.8444
343 1 1.24499 8.25531 2.42375
344 1 1.62422 7.8595 0.867811
345 1 2.30105 7.78613 1.73287
346 1 2.88007 8.52583 0.0342092
347 1 2.41152 8.61176 2.5363
348 1 2.67839 7.97236 0.767528
349 1 3.40826 8.09875 1.47553
350 1 3.99567 8.6101 12.9418
351 1 2.78014 9.71128 3.2075
352 1 3.95619 7.96504 0.783104
353 1 0.410862 4.88764 3.33976
354 1 0.765804 4.35824 4.15105
355 1 1.61503 5.06873 3.27735
356 1 1.71124 4.53099 4.01818
357 1 2.74367 5.1412 3.35253
358 1 2.80289 4.6995 4.17342
359 1 3.9314 5.23256 3.26177
360 1 3.9492 4.61602 3.94084
361 1 0.553808 6.03023 3.20167
362 1 0.513667 5.43786 4.02527
363 1 1.673 6.0461 3.29161
364 1 1.58274 5.64141 4.1414
365 1 2.91372 6.31624 3.23032
366 1 2.72022 5.74733 4.07827
367 1 3.98302 6.3957 3.37394
368 1 3.87607 5.67295 4.11163
369 1 0.701897 7.18988 3.35013
370 1 0.641684 6.60473 4.01891
371 1 1.75185 7.13416 3.24505
372 1 1.73608 6.68165 4.11574
373 1 3.08407 7.25561 3.28354
374 1 2.68391 6.74893 4.09371
375 1 5.01846 7.57031 3.31158
376 1 3.30601 6.93505 4.84536
377 1 0.610632 8.33669 3.244
378 1 0.572775 7.72812 4.15942
379 1 1.66821 8.24458 3.25471
380 1 1.85545 7.73389 4.06407
381 1 4.01386 8.67826 3.15248
382 1 2.96343 7.83175 3.9559
383 1 4.07699 7.55364 3.26372
384 1 4.03851 8.04474 4.0371
385 1 3.90124 4.78563 0.756503
386 1 5.00321 5.45513 0.0094857
387 1 4.43806 5.30944 2.44605
388 1 4.94004 4.81315 0.87278
389 1 5.64429 5.28006 2.51688
390 1 6.03306 4.95451 0.775807
391 1 6.11734 5.46155 3.34213
392 1 5.5859 4.74965 1.61059
393 1 6.59316 4.70196 1.61397
394 1 6.75679 5.30448 12.0124
395 1 6.78152 5.30351 2.31935
396 1 7.23267 4.69022 0.920084
397 1 7.91306 4.51239 1.49754
398 1 8.31742 5.14088 0.0760668
399 1 7.73554 5.13596 2.39287
400 1 8.45228 4.60988 0.822554
401 1 4.5318 5.75094 1.68595
402 1 5.02611 6.601 12.9416
403 1 4.44245 6.37561 2.58096
404 1 5.0065 5.9757 0.747836
405 1 5.58086 5.82086 1.69495
406 1 6.14494 6.57368 12.9507
407 1 6.218 6.52565 3.30457
408 1 6.06347 5.90242 0.776044
409 1 6.65201 5.9871 1.58047
410 1 7.21826 5.77133 0.882814
411 1 6.63518 6.36276 2.46833
412 1 7.24589 5.26695 12.8331
413 1 7.83143 5.71396 1.68678
414 1 8.39996 6.22193 0.0296906
415 1 7.89851 6.19603 2.45964
416 1 8.32332 5.65148 0.89277
417 1 4.48028 6.77513 1.59166
418 1 5.07653 7.65126 0.0258177
419 1 4.46196 7.43129 2.29447
420 1 5.02532 7.08469 0.854587
421 1 5.56935 6.39102 2.36716
422 1 6.18583 7.66437 0.0648305
423 1 5.68046 7.07556 1.68169
424 1 6.15198 6.99849 0.79346
425 1 6.7415 7.06772 1.67949
426 1 7.28791 7.47345 12.8987
427 1 6.78889 7.62872 2.45056
428 1 7.31107 7.06233 0.827496
429 1 7.80669 6.76206 1.60851
430 1 8.42421 6.74549 0.838604
431 1 7.96918 7.49098 2.44083
432 1 9.04447 6.70285 1.60348
433 1 4.49029 8.147 1.68149
434 1 5.10538 8.82525 12.9309
435 1 4.641 8.67553 2.40322
436 1 5.04455 8.17237 0.820966
437 1 5.49746 7.57724 2.37884
438 1 6.1485 8.79064 0.0364029
439 1 5.60025 8.23916 1.53047
440 1 6.18234 8.23438 0.806105
441 1 6.68598 8.09057 1.59012
442 1 7.27541 8.57515 0.032687
443 1 6.89623 8.62071 2.29897
444 1 7.37419 8.09057 0.867412
445 1 7.94295 7.99316 1.67702
446 1 8.4957 7.83617 0.848277
447 1 7.90402 9.0205 1.55271
448 1 8.34658 7.26543 12.9238
449 1 5.02279 5.40789 3.27708
450 1 4.83862 4.32944 3.30304
451 1 6.12116 6.08564 4.14862
452 1 6.00449 4.19106 3.25311
453 1 7.13897 5.35447 3.32784
454 1 7.22997 4.62831 4.13842
455 1 8.4158 5.78373 4.04962
456 1 8.3397 3.35882 3.96614
457 1 4.87569 5.94241 4.09986
458 1 4.45636 5.25436 5.64071
459 1 6.37013 7.25093 3.94963
460 1 6.26682 7.66538 3.08559
461 1 7.3657 6.45527 3.13442
462 1 8.27465 6.28569 6.55214
463 1 8.52492 6.18957 3.18159
464 1 7.83757 6.30693 5.6321
465 1 5.12392 8.25319 4.18179
466 1 5.22149 6.58024 3.26093
467 1 6.2224 8.86452 3.25308
468 1 5.13412 7.0547 4.099
469 1 6.18281 8.15226 3.93426
470 1 7.32509 7.51465 3.18865
471 1 8.42085 7.36887 3.18174
472 1 8.44719 6.80827 3.94606
473 1 5.09782 8.62009 3.22826
474 1 4.53533 8.11272 4.87043
475 1 5.71247 8.1857 4.92703
476 1 6.72546 8.0948 4.80831
477 1 7.25954 8.70468 3.40046
478 1 6.80268 9.13965 4.78851
479 1 7.92323 8.58416 2.56668
480 1 8.4249 7.98515 4.05988
481 1 8.87321 3.91706 2.38464
482 1 9.42686 5.03467 12.9218
483 1 9.59763 4.26891 0.765808
484 1 9.39639 4.89007 3.06076
485 1 11.169 3.05808 1.6756
486 1 10.0304 4.75948 12.2568
487 1 10.2204 6.40052 1.56579
488 1 10.6451 4.68966 0.0406795
489 1 10.6457 4.03673 0.864446
490 1 12.3223 4.65085 12.2804
491 1 11.1022 4.82111 2.5257
492 1 11.6775 4.67046 0.0997253
493 1 12.3373 4.13758 1.65185
494 1 12.8701 4.69289 0.146317
495 1 12.3841 4.72919 2.51549
496 1 12.9505 4.05494 0.839746
497 1 9.04325 5.57354 1.551
498 1 9.43709 6.00551 12.9214
499 1 9.62235 6.04477 3.30972
500 1 9.07319 4.59412 1.65616
501 1 9.59194 5.43227 0.990509
502 1 10.6711 5.77615 12.8597
503 1 10.6363 5.92175 3.20646
504 1 10.5529 5.27421 0.769498
505 1 11.0987 5.2308 1.55069
506 1 11.1484 5.81461 12.1244
507 1 11.2408 5.87912 2.35022
508 1 11.8034 5.24991 0.859404
509 1 12.2129 5.14382 1.70109
510 1 12.9962 5.852 12.9143
511 1 12.2906 5.85249 2.45069
512 1 12.8646 5.2515 0.799956
513 1 9.11502 6.10257 2.44213
514 1 9.41657 7.04879 12.9236
515 1 8.88951 7.17683 2.21528
516 1 9.64864 6.5118 0.676474
517 1 10.1224 5.86629 2.2799
518 1 10.5881 7.00681 12.8675
519 1 10.0721 6.91546 2.50795
520 1 10.7306 6.42748 0.658138
521 1 11.2372 6.31696 1.49751
522 1 11.7608 6.85181 0.0995238
523 1 11.194 6.85823 2.38874
524 1 12.9037 6.41428 0.819347
525 1 12.2964 6.47601 1.71461
526 1 12.3556 6.97293 12.2332
527 1 12.3004 6.97461 2.47359
528 1 12.9126 6.97111 0.0217221
529 1 9.05618 7.93509 1.52668
530 1 9.90255 8.22331 12.1625
531 1 8.45371 8.52304 3.27556
532 1 9.55543 7.75724 0.775588
533 1 10.061 7.4834 1.76598
534 1 10.6751 8.04225 12.7942
535 1 10.1176 8.10735 2.41414
536 1 10.5671 7.52703 0.849975
537 1 11.1797 7.45866 1.73166
538 1 11.705 7.52663 0.827529
539 1 11.1751 8.02445 2.48699
540 1 11.9247 6.2173 0.803365
541 1 12.3307 7.61838 1.62743
542 1 12.9112 8.06843 0.0824198
543 1 13.0565 8.16582 3.35597
544 1 12.8611 7.52976 0.800849
545 1 8.78353 5.11758 2.46545
546 1 9.52537 3.31949 4.05863
547 1 10.0769 4.96946 2.19939
548 1 10.5359 4.36841 4.10125
549 1 11.6772 4.75583 3.22709
550 1 11.6964 4.1387 4.00013
551 1 12.7281 4.64993 3.3695
552 1 13.0169 4.20297 4.17944
553 1 9.52557 6.63845 4.13936
554 1 9.49693 5.46096 3.91416
555 1 10.431 4.85466 3.21813
556 1 10.7397 5.46449 4.02226
557 1 11.7721 5.87318 3.23516
558 1 11.7513 5.27116 4.05461
559 1 12.8209 5.778 3.36774
560 1 12.9119 5.26763 4.12791
561 1 9.56634 8.20343 3.19848
562 1 9.49302 7.14223 3.12909
563 1 10.6805 7.04277 3.22936
564 1 10.6912 6.52381 4.07542
565 1 11.7426 7.07271 3.36344
566 1 11.796 6.37572 3.97496
567 1 12.9136 6.94801 3.19035
568 1 12.97 6.41598 4.0042
569 1 9.02983 8.33602 2.49086
570 1 8.98234 7.8238 4.80173
571 1 10.634 8.10176 3.3917
572 1 10.622 7.58146 4.10186
573 1 12.4358 8.06767 2.59543
574 1 11.7275 8.62067 4.07967
575 1 12.8361 7.48465 4.04618
576 1 12.3099 7.4549 4.89324
577 1 0.0727706 8.61983 1.72347
578 1 0.0727943 9.21466 12.2252
579 1 0.619575 9.4071 3.28293
580 1 0.579601 8.78248 0.857114
581 1 1.21035 8.83372 1.58299
582 1 1.80591 9.45878 0.0311437
583 1 1.2712 9.32552 2.44067
584 1 1.75823 8.91964 0.794661
585 1 2.2921 8.99853 1.68096
586 1 2.66892 9.60179 12.8017
587 1 2.34371 9.64462 2.38687
588 1 2.89661 9.06416 0.795271
589 1 3.38949 9.17994 1.69916
590 1 3.83434 9.77712 0.00794797
591 1 3.4303 8.56454 2.51673
592 1 3.91648 9.19308 0.764957
593 1 0.0693723 9.26647 2.48882
594 1 0.545843 10.0403 0.742327
595 1 0.0695321 10.3893 2.43485
596 1 0.689832 9.32326 0.0688673
597 1 1.15727 9.81974 1.60291
598 1 1.72946 10.6309 12.949
599 1 1.15322 10.4169 2.43596
600 1 1.63018 10.0199 0.864519
601 1 2.29961 10.2292 1.53397
602 1 2.8615 10.7263 0.0408217
603 1 2.17588 10.6349 2.39681
604 1 2.86095 10.1736 0.830328
605 1 3.41944 10.2146 1.60685
606 1 3.96006 10.9477 12.8557
607 1 3.48762 10.8586 2.35273
608 1 3.99248 10.3346 0.692589
609 1 13.299 10.9453 1.72405
610 1 0.538462 12.0779 0.925023
611 1 0.0980557 11.4418 2.62999
612 1 0.581512 10.5776 12.9402
613 1 0.560312 11.0662 0.907575
614 1 2.88576 11.8046 0.0227363
615 1 1.0728 11.5812 2.31944
616 1 1.08564 11.0007 1.6447
617 1 2.16701 11.2564 1.59272
618 1 2.82009 12.418 0.756561
619 1 2.25966 11.8312 2.38654
620 1 1.6378 11.1073 0.749524
621 1 3.37516 11.3468 1.57131
622 1 3.96742 11.9695 0.0767867
623 1 3.36056 11.9845 2.36074
624 1 3.97617 11.4075 0.889815
625 1 0.0164503 12.0945 1.82434
626 1 0.144758 12.6576 12.0424
627 1 13.3564 12.7302 2.46028
628 1 0.530496 12.6293 0.00764228
629 1 1.04116 12.3328 1.67252
630 1 1.68473 0.475462 12.8089
631 1 1.07534 12.7484 2.49479
632 1 1.71578 12.2454 0.870049
633 1 2.22825 12.325 1.57403
634 1 1.65299 12.8362 0.0469439
635 1 2.28325 12.967 2.47223
636 1 2.77197 13.063 0.0138914
637 1 3.38673 12.5474 1.54955
638 1 4.04129 0.30899 0.850251
639 1 3.90914 13.1966 3.19025
640 1 3.90095 12.581 0.736832
641 1 0.597244 9.91536 4.1355
642 1 0.401783 8.81027 4.09946
643 1 1.69092 9.49369 3.2978
644 1 1.61918 8.96633 4.01838
645 1 2.72632 8.54333 3.45756
646 1 2.9453 9.16537 4.14573
647 1 3.38406 9.76069 2.54692
648 1 4.04963 9.739 3.19856
649 1 0.501506 10.4171 3.22373
650 1 13.363 9.84349 4.83196
651 1 1.56509 10.6571 3.29121
652 1 1.70451 10.1482 4.04435
653 1 2.78973 10.8176 3.09808
654 1 2.80435 10.2327 3.98521
655 1 3.88289 10.8926 3.43356
656 1 3.80926 10.2168 4.01496
657 1 0.575601 11.6385 3.37122
658 1 0.291424 11.0253 4.02424
659 1 1.58521 11.7226 3.10755
660 1 1.5172 11.2778 4.08474
661 1 2.72304 11.91 3.16442
662 1 2.74907 11.3248 4.0572
663 1 3.83005 11.9962 3.23202
664 1 3.99384 11.5293 4.03636
665 1 0.705817 13.2725 4.10199
666 1 0.504811 12.6691 3.26609
667 1 1.65621 12.8747 3.20232
668 1 1.68778 12.2244 4.00833
669 1 2.78885 13.0355 3.24858
670 1 2.79465 12.4429 3.98609
671 1 3.98539 0.167363 4.12451
672 1 3.94677 12.6127 3.94747
673 1 4.41278 9.25145 1.65117
674 1 5.12966 9.86553 0.0726994
675 1 4.62492 9.78751 2.44233
676 1 4.97776 9.31381 0.816887
677 1 5.63699 9.28074 1.6537
678 1 6.23235 10.9508 0.0936777
679 1 5.69504 9.83531 2.33075
680 1 6.22403 9.34133 0.852392
681 1 6.74542 9.33866 1.69492
682 1 7.26642 9.82434 0.0122757
683 1 6.81926 9.8242 2.50713
684 1 7.28916 9.21931 0.858433
685 1 8.48604 9.07573 0.856509
686 1 8.39338 9.66021 0.146264
687 1 7.81872 10.1525 1.72901
688 1 8.40145 8.45541 0.123166
689 1 4.44058 10.3746 1.67662
690 1 5.18475 10.9845 0.156237
691 1 4.46239 10.8804 2.49446
692 1 5.01947 10.394 0.862044
693 1 5.63613 10.5336 1.60146
694 1 5.61415 11.0836 12.1773
695 1 5.5061 10.9331 2.52982
696 1 6.18185 9.87068 0.0404183
697 1 6.2405 10.4082 0.891113
698 1 7.28604 10.9043 12.8751
699 1 6.81323 10.9782 2.38608
700 1 6.79334 10.4293 1.64562
701 1 7.43557 10.3197 0.893908
702 1 8.4747 10.7393 12.7886
703 1 7.87081 10.7775 2.40701
704 1 8.42701 10.2334 0.848531
705 1 4.57853 11.5317 1.63542
706 1 5.11398 12.1134 12.873
707 1 4.46896 12.0244 2.499
708 1 5.16773 11.5723 0.713645
709 1 5.68078 11.5398 1.59974
710 1 6.29613 12.1174 0.0103582
711 1 5.55795 12.727 1.7117
712 1 6.20475 11.6217 0.787519
713 1 6.87911 11.5732 1.50092
714 1 7.35875 11.9334 12.8913
715 1 6.82938 12.0856 2.38209
716 1 7.50671 11.3876 0.873243
717 1 8.02931 11.4613 1.77799
718 1 8.53198 11.9223 12.9128
719 1 7.89441 12.0831 2.45991
720 1 8.4703 11.2384 0.672863
721 1 4.51116 12.5037 1.60376
722 1 5.68817 13.2464 12.2044
723 1 4.41629 0.828963 2.45707
724 1 5.07219 13.2245 12.947
725 1 5.08478 12.6633 0.778835
726 1 6.21675 0.383676 0.778094
727 1 5.63624 13.2202 2.46464
728 1 6.16565 12.7481 0.880376
729 1 6.75409 12.5668 1.52098
730 1 7.29238 13.1328 0.0864787
731 1 6.81621 13.1412 2.43735
732 1 7.41214 12.4901 0.74487
733 1 7.95311 12.4758 1.60596
734 1 8.38902 13.009 12.8785
735 1 8.0598 13.1103 2.4565
736 1 8.54399 12.3739 0.813156
737 1 5.07881 9.82663 3.28837
738 1 4.99797 9.23058 4.01485
739 1 6.18793 9.87428 3.23344
740 1 6.14754 9.24907 4.17418
741 1 7.97924 9.64275 2.43141
742 1 7.40768 9.30155 4.05045
743 1 8.45248 9.62469 3.28951
744 1 9.05397 9.05837 4.88101
745 1 5.05337 10.9084 3.22063
746 1 4.92933 10.4087 4.07083
747 1 6.30664 11.0291 3.1143
748 1 6.25624 10.4787 4.01034
749 1 7.41088 10.9505 3.20588
750 1 7.27885 10.2734 4.0371
751 1 8.46206 10.6816 3.29444
752 1 8.39709 10.2383 4.1191
753 1 5.84858 12.0342 2.37168
754 1 5.06845 12.0818 3.08991
755 1 6.07106 12.1182 3.24021
756 1 6.09477 11.5133 3.98235
757 1 7.22473 12.0367 3.29426
758 1 7.24936 11.4434 4.04308
759 1 8.43301 11.6735 3.21001
760 1 8.40075 11.322 4.10031
761 1 5.14379 0.325359 4.03608
762 1 4.98534 12.62 4.005
763 1 6.25595 13.31 3.16764
764 1 6.21908 12.6322 3.99006
765 1 7.4206 13.0764 3.18597
766 1 7.36583 12.4983 4.08072
767 1 8.52345 12.9087 3.24782
768 1 8.37875 12.3133 4.06065
769 1 8.98869 8.98984 1.68718
770 1 9.53005 8.96527 0.912734
771 1 9.15387 9.48821 2.43232
772 1 9.59725 9.30642 0.0252896
773 1 10.2249 8.68636 1.52581
774 1 10.1877 9.40734 12.2752
775 1 10.2025 9.20978 2.29433
776 1 10.7736 8.49922 0.888871
777 1 11.363 8.62225 1.68208
778 1 11.7622 9.06901 12.8863
779 1 11.2381 9.18077 2.53234
780 1 11.8586 8.55556 0.713087
781 1 12.395 8.54503 1.63309
782 1 12.9257 9.36244 12.916
783 1 12.358 9.1237 2.41924
784 1 12.9651 8.70446 0.801129
785 1 8.94143 10.0829 1.6991
786 1 9.57621 10.4263 0.0410291
787 1 9.08935 10.7147 2.50817
788 1 9.57187 9.98371 0.847004
789 1 10.1545 9.96121 1.68873
790 1 11.3332 9.69361 1.62097
791 1 10.1283 10.4601 2.53012
792 1 10.653 9.13297 0.2213
793 1 11.8089 9.50538 0.776979
794 1 11.756 10.1641 0.0612248
795 1 11.6942 10.3995 3.25862
796 1 12.8749 9.8988 0.902225
797 1 12.4467 9.65748 1.68379
798 1 12.9119 10.3587 12.8975
799 1 12.294 10.2408 2.40454
800 1 0.0926694 9.71128 1.62463
801 1 9.00533 11.1116 1.57939
802 1 9.5739 11.5424 12.9348
803 1 9.08505 11.8045 2.56145
804 1 9.57417 11.1356 0.7405
805 1 9.99371 10.9796 1.50752
806 1 10.6895 11.4259 12.9497
807 1 10.2429 11.5359 2.43974
808 1 10.6626 9.77429 0.887124
809 1 10.7576 10.8728 0.843662
810 1 11.8547 10.705 0.808369
811 1 11.2051 11.4552 2.24238
812 1 11.2068 10.8015 1.60176
813 1 12.2253 10.8588 1.68459
814 1 13.0221 11.4367 0.0401388
815 1 12.2533 11.3589 2.53519
816 1 12.8942 10.8741 0.930889
817 1 9.04094 12.1878 1.6191
818 1 9.52027 12.7775 0.0134598
819 1 9.11404 12.7845 2.36071
820 1 9.60871 12.2308 0.784497
821 1 10.0911 12.0651 1.61175
822 1 10.6912 12.5097 12.9431
823 1 10.2156 12.5923 2.41022
824 1 10.7543 11.9897 0.794448
825 1 11.235 12.1244 1.56873
826 1 13.4373 12.0248 11.2963
827 1 11.333 12.5891 2.45119
828 1 11.9122 11.8924 0.861677
829 1 12.4275 11.929 1.69451
830 1 11.8546 12.4647 12.904
831 1 12.2997 12.7043 2.34642
832 1 12.9539 12.0003 0.876609
833 1 9.56817 9.35927 3.27541
834 1 10.2158 8.74007 4.9432
835 1 10.5175 9.20505 3.19128
836 1 10.6716 8.75379 4.09553
837 1 11.1182 10.2399 2.44697
838 1 11.7393 8.13023 3.2191
839 1 12.8804 9.31767 3.20333
840 1 12.8008 8.71136 4.08834
841 1 9.49576 10.3811 3.50587
842 1 9.71573 9.96913 4.26894
843 1 10.542 10.2922 3.28925
844 1 10.7601 9.83409 4.13969
845 1 11.7638 9.73927 4.01099
846 1 11.7981 9.23426 3.3296
847 1 12.8325 10.3691 3.21243
848 1 12.8895 9.85027 4.051
849 1 9.60766 11.4959 3.30773
850 1 9.47563 11.1473 4.16854
851 1 10.6559 11.5117 3.40515
852 1 10.6697 10.9389 4.11647
853 1 11.5605 11.3407 3.12964
854 1 11.7059 10.9037 4.04586
855 1 12.8562 11.5479 3.16709
856 1 12.7059 10.9545 3.98117
857 1 9.53405 12.821 3.25065
858 1 9.50457 12.1811 3.99278
859 1 10.6995 12.5554 3.11941
860 1 10.6496 12.1697 4.14662
861 1 11.8756 12.4288 3.28727
862 1 11.8156 11.9408 4.08763
863 1 12.8286 12.5337 3.34115
864 1 12.875 12.06 4.13749
865 1 0.129358 13.3084 4.89406
866 1 0.0688668 0.419028 5.67524
867 1 1.27328 13.218 4.90382
868 1 1.12092 0.463004 5.63944
869 1 2.35717 12.9028 5.77641
870 1 2.25268 13.3765 4.7363
871 1 3.3712 0.291379 4.83262
872 1 3.50277 0.894424 5.63073
873 1 0.0373736 1.00218 4.73914
874 1 0.0469913 1.52796 5.64663
875 1 1.18033 1.07469 4.84337
876 1 1.24348 1.6412 5.64351
877 1 2.11866 0.645703 5.67652
878 1 2.18156 1.80556 5.4645
879 1 2.72687 1.27905 4.00371
880 1 3.37872 1.99856 5.71482
881 1 0.0269588 2.02467 4.81568
882 1 0.0658736 2.56937 5.5242
883 1 1.08033 2.20702 4.84314
884 1 1.20605 2.68401 5.76839
885 1 2.24363 2.3312 4.69314
886 1 2.25816 2.8231 5.50422
887 1 3.20385 3.03354 5.66454
888 1 3.82763 3.00323 6.37117
889 1 0.0192128 3.14241 4.77978
890 1 0.01712 3.6299 5.75324
891 1 1.001 3.26644 4.83948
892 1 1.11409 3.81851 5.57533
893 1 2.06947 3.37864 4.84216
894 1 2.30821 3.96378 5.70954
895 1 3.39896 3.581 4.71519
896 1 3.25206 4.05358 5.66509
897 1 0.0656955 13.2334 8.03519
898 1 0.636841 0.41742 6.50686
899 1 0.687866 13.2478 7.40001
900 1 1.36448 13.3811 8.19574
901 1 1.67881 0.844223 6.66015
902 1 1.75784 13.3899 7.23905
903 1 2.48223 0.184982 7.97633
904 1 2.81497 0.322294 7.08845
905 1 3.42177 0.264523 7.90841
906 1 3.47091 0.801183 9.01563
907 1 3.9512 0.773037 6.43988
908 1 4.01834 0.169945 7.1987
909 1 0.0342302 0.812598 8.08007
910 1 0.533547 1.45378 6.43745
911 1 0.619967 0.963518 7.36051
912 1 2.02061 1.09755 7.64331
913 1 1.55558 1.65226 6.64179
914 1 2.45108 0.709512 8.81669
915 1 2.94453 1.4009 7.32995
916 1 2.65262 1.83774 6.46566
917 1 2.81389 0.813618 6.15311
918 1 2.92936 0.753126 9.84232
919 1 3.67186 2.67968 7.36789
920 1 3.94596 1.3358 7.20733
921 1 0.303925 1.89997 8.08241
922 1 0.612911 2.18287 7.2007
923 1 1.08488 2.40969 8.60036
924 1 1.2612 1.04404 8.00729
925 1 1.64639 2.81396 6.45828
926 1 1.54109 2.18116 7.46886
927 1 2.05179 2.19516 8.28894
928 1 2.74083 2.99061 6.59575
929 1 2.6474 2.3475 7.19324
930 1 3.33348 1.99063 8.90289
931 1 3.30134 3.0675 8.94289
932 1 3.10034 2.40569 8.11278
933 1 13.3557 3.07449 8.0237
934 1 0.631525 3.80395 6.55765
935 1 0.563488 2.68527 6.38442
936 1 0.547843 3.19434 7.33897
937 1 1.75355 3.82586 6.40235
938 1 1.84345 3.21567 7.42458
939 1 2.44245 3.28666 7.94845
940 1 2.86273 3.78681 6.84512
941 1 3.28781 3.5316 8.05393
942 1 3.30897 4.13605 8.97144
943 1 4.52207 4.19126 5.49903
944 1 3.86875 2.01216 6.6416
945 1 4.61985 0.395612 4.87565
946 1 4.53991 0.920834 5.63578
947 1 5.66423 0.226501 4.75891
948 1 5.70512 0.89542 5.67215
949 1 6.88679 0.376105 4.80528
950 1 6.69918 0.864359 5.6242
951 1 7.91545 0.271287 4.79997
952 1 8.50701 0.642355 6.46464
953 1 3.36494 1.48323 4.75434
954 1 3.82853 3.66302 3.8141
955 1 5.67165 1.38198 4.89411
956 1 5.6724 2.0085 5.625
957 1 6.71286 1.40727 4.75069
958 1 6.58464 3.05035 5.63624
959 1 7.83417 1.26319 4.88906
960 1 7.90316 1.80509 5.67292
961 1 4.45312 1.99413 5.75834
962 1 4.90535 3.74777 7.23464
963 1 5.57769 2.60567 4.83672
964 1 4.94904 3.11618 6.4748
965 1 6.77668 2.51682 4.91927
966 1 6.68756 4.34413 5.68466
967 1 7.87787 2.44694 4.89859
968 1 7.87356 2.96576 5.64276
969 1 5.49672 3.79795 4.69141
970 1 3.83092 4.22478 6.35393
971 1 5.15206 4.82625 4.04486
972 1 5.68132 4.79642 5.03352
973 1 6.62993 3.72528 4.98339
974 1 6.71473 4.93948 4.81927
975 1 7.7188 4.12283 5.62329
976 1 8.26653 3.98591 6.34556
977 1 4.47786 0.551312 8.13703
978 1 5.06876 0.95604 6.46581
979 1 5.05417 0.356494 7.32091
980 1 5.65181 0.507546 8.13426
981 1 6.12848 0.987828 6.53589
982 1 6.10949 0.319169 7.22821
983 1 6.72965 13.1525 8.96043
984 1 7.91736 0.598074 5.75099
985 1 6.67474 0.320341 8.10224
986 1 7.93126 0.174123 8.07468
987 1 8.39142 0.0329994 7.19925
988 1 8.40983 12.8665 6.39388
989 1 4.35378 1.57986 8.06641
990 1 5.10571 2.072 6.42312
991 1 5.04129 1.51682 7.21486
992 1 5.47174 1.4953 8.00501