data.lammps (converted from cfg to data.lammps)
    
2298  atoms
1  atom types
0.0   13.4375  xlo xhi
0.0   13.4375  ylo yhi
0.0   12.952  zlo zhi
0.0  0.0 0.0 xy xz yz
    
    
    
Atoms
  
1 1 0.145706 12.9667 1.67917
2 1 0.629297 0.199536 0.00678373
3 1 0.00983469 0.764248 1.68858
4 1 1.25866 13.1205 1.56856
5 1 1.99629 13.1817 0.725936
6 1 2.2265 13.1243 11.3648
7 1 1.13034 0.180968 2.35469
8 1 2.27274 1.02618 1.57094
9 1 2.25164 13.1468 1.58706
10 1 2.98573 13.2695 0.735734
11 1 2.22235 0.317501 2.3176
12 1 2.99431 0.401205 0.000176334
13 1 3.37929 12.7933 2.35992
14 1 3.98665 0.557788 0.123082
15 1 3.47744 0.427583 2.55034
16 1 3.33517 13.4012 1.62378
17 1 12.9567 0.861344 0.788981
18 1 0.996964 1.86433 11.2948
19 1 13.4372 1.36345 2.40269
20 1 0.58622 0.765301 0.796573
21 1 1.16888 0.899575 1.67643
22 1 0.709426 1.2742 0.00403754
23 1 1.04896 1.8407 1.60221
24 1 1.74112 1.24679 0.189134
25 1 1.68962 0.714538 0.908888
26 1 2.18468 1.37651 12.1635
27 1 2.28772 1.53961 2.43095
28 1 2.88093 1.49743 3.17811
29 1 3.43858 0.972688 1.56257
30 1 4.00627 1.46281 12.8906
31 1 4.93652 1.79784 3.35558
32 1 5.99182 0.337522 1.25604
33 1 12.8663 2.0044 0.794537
34 1 0.503029 2.34044 0.00961541
35 1 0.0583566 2.5164 2.3016
36 1 13.306 1.9113 1.6441
37 1 2.28628 2.02463 1.54582
38 1 1.67248 2.41551 0.105069
39 1 1.14021 2.5205 2.47068
40 1 3.00653 2.06528 0.768381
41 1 2.88531 0.995204 0.71963
42 1 2.67117 2.57467 12.8251
43 1 2.2588 2.6113 2.32069
44 1 3.51157 2.0312 1.60225
45 1 3.45157 1.55178 2.34308
46 1 3.89154 2.85126 0.0289648
47 1 2.69984 2.61948 3.25827
48 1 4.05913 2.16043 0.668135
49 1 0.0792936 3.03201 1.57296
50 1 0.619697 2.90427 0.734469
51 1 13.4119 3.47076 2.52267
52 1 1.17125 2.96582 1.63094
53 1 0.591223 1.76128 0.857469
54 1 1.73594 3.70371 12.9317
55 1 1.0003 3.64727 2.45165
56 1 1.65285 3.12099 0.722068
57 1 2.21013 3.19858 1.6024
58 1 2.89209 3.79631 12.8416
59 1 2.19311 3.6355 2.60234
60 1 2.78093 3.08555 0.701061
61 1 3.2698 3.26353 1.59571
62 1 3.92601 3.91722 12.9434
63 1 3.38702 3.86039 2.41311
64 1 3.83068 3.27046 0.811421
65 1 13.3935 0.181623 2.39884
66 1 0.533389 0.300878 3.27864
67 1 1.6455 0.312396 3.2341
68 1 1.79843 12.9807 4.00504
69 1 2.81991 0.437756 3.06627
70 1 2.71744 13.2947 4.01753
71 1 3.84976 1.63581 3.23492
72 1 4.10103 0.614852 3.1756
73 1 0.452587 1.35117 3.20826
74 1 0.6596 0.85446 4.1206
75 1 1.07521 1.33428 2.53652
76 1 1.73287 0.787831 4.00678
77 1 1.72161 1.46705 3.26148
78 1 2.19188 0.991408 4.84815
79 1 4.02691 2.18378 3.94357
80 1 4.56853 1.75052 2.47053
81 1 0.427454 2.46262 3.20785
82 1 0.504089 1.83238 4.04446
83 1 1.67332 2.50847 3.24156
84 1 1.6168 1.93164 4.01256
85 1 2.86486 2.05154 4.05238
86 1 3.23879 2.12674 4.8077
87 1 3.34815 2.70514 2.40481
88 1 4.46493 2.31692 4.83086
89 1 0.597469 3.56772 3.36282
90 1 0.684603 2.90284 4.04631
91 1 1.63671 3.62718 3.22436
92 1 1.68272 3.0931 4.14755
93 1 2.87818 3.82043 3.16849
94 1 2.65055 3.14835 4.02025
95 1 4.10278 4.02828 3.25279
96 1 3.71009 2.79231 3.26427
97 1 4.40829 0.141118 1.55945
98 1 5.08863 0.7475 12.9314
99 1 4.07597 1.0361 0.934668
100 1 5.15376 0.17159 0.948834
101 1 5.46167 0.678826 2.2162
102 1 6.17945 0.663327 0.206688
103 1 5.08101 12.9864 3.12555
104 1 6.74358 0.382508 1.63344
105 1 6.64698 1.50715 1.70698
106 1 7.36456 1.04718 12.9137
107 1 6.82758 0.920416 2.54537
108 1 7.75446 0.300467 1.61352
109 1 7.22258 0.415865 0.719311
110 1 7.92116 1.47283 11.3737
111 1 8.02412 0.992142 2.33891
112 1 8.35434 0.317544 0.857812
113 1 5.05055 1.17557 0.996504
114 1 4.44214 1.75922 12.1598
115 1 3.90601 1.08817 4.1366
116 1 5.67755 1.41598 1.54344
117 1 6.12751 1.98253 12.8898
118 1 6.18808 2.52694 0.820641
119 1 5.65322 1.87621 2.50819
120 1 5.04682 1.63745 0.106421
121 1 6.26564 1.41944 0.655303
122 1 6.82634 2.04304 12.2094
123 1 6.81984 2.11522 2.39284
124 1 7.27165 1.46697 0.816631
125 1 7.74199 1.49242 1.64698
126 1 8.48304 1.88237 0.087128
127 1 7.93056 2.08092 2.49399
128 1 7.99745 2.08992 12.1428
129 1 4.58536 2.08394 1.61173
130 1 4.99227 2.8892 12.9229
131 1 4.34344 2.80836 2.49638
132 1 5.17541 2.38749 0.707061
133 1 5.54265 2.53868 1.66858
134 1 6.21683 3.04593 12.9007
135 1 5.61993 2.98917 2.51603
136 1 6.7317 2.66341 1.64336
137 1 7.77066 3.10531 2.51646
138 1 7.81063 3.13745 12.1829
139 1 6.68849 3.15624 2.43643
140 1 7.40191 2.13639 12.9301
141 1 7.25045 2.61233 0.748648
142 1 8.42168 3.10867 0.00165857
143 1 7.96713 3.56665 1.60957
144 1 7.87738 2.61445 1.46924
145 1 4.45133 3.1322 1.56601
146 1 5.06473 4.09193 0.0245614
147 1 4.48694 3.80772 2.36538
148 1 4.99186 3.51172 0.793743
149 1 5.5071 3.61418 1.78138
150 1 6.08263 4.08272 0.108224
151 1 5.68203 4.10373 2.48391
152 1 6.06206 3.62743 0.917505
153 1 7.14479 4.3356 0.130045
154 1 6.57014 4.36571 12.1509
155 1 6.7194 3.67821 1.58062
156 1 7.24293 3.78356 0.912843
157 1 7.84278 4.22396 2.30789
158 1 8.46052 4.2993 12.915
159 1 8.41812 4.24653 3.06718
160 1 8.45723 3.69812 0.796055
161 1 4.98233 0.725625 3.27526
162 1 4.48119 12.9825 2.41662
163 1 6.02833 0.861651 2.94346
164 1 6.04299 0.393209 3.87102
165 1 7.35094 0.925111 3.25328
166 1 7.22748 0.346565 4.02126
167 1 8.33095 0.804738 3.33098
168 1 8.32866 0.285284 4.2015
169 1 5.31641 1.33931 4.03013
170 1 4.5653 1.20219 4.66009
171 1 6.20243 1.95201 3.28912
172 1 6.3766 1.30435 4.01561
173 1 7.28759 2.09359 3.27081
174 1 7.34371 1.52079 4.04222
175 1 8.39535 2.0216 3.37423
176 1 8.54323 1.38225 4.13968
177 1 4.99626 2.87139 3.14258
178 1 5.12545 2.35055 4.08959
179 1 6.22543 3.1155 3.29815
180 1 6.2451 2.4557 4.06632
181 1 7.21906 3.25995 3.28342
182 1 7.44925 2.76533 4.09499
183 1 8.3982 3.23416 3.16553
184 1 8.48796 2.61185 3.96984
185 1 5.15321 3.41709 3.82355
186 1 4.38311 3.46205 4.8154
187 1 6.71272 4.20385 2.34417
188 1 6.2676 3.68561 4.11293
189 1 7.331 4.28511 3.26177
190 1 7.49154 3.81609 4.14407
191 1 8.38222 5.2198 3.24874
192 1 7.87186 3.74404 5.07782
193 1 8.91453 0.222307 1.60935
194 1 9.12469 0.926719 12.1776
195 1 8.99176 0.795344 2.47184
196 1 9.61364 0.0843992 0.8316
197 1 10.1855 0.0445261 1.69882
198 1 10.7057 0.643676 0.0793438
199 1 10.0626 0.564466 2.57803
200 1 10.7842 0.0432474 0.853148
201 1 11.2948 13.3355 1.81613
202 1 11.3054 0.43211 12.3282
203 1 11.2239 0.501281 2.48597
204 1 11.7732 13.2744 0.798483
205 1 12.3109 13.1607 1.59053
206 1 11.8881 0.575591 12.934
207 1 12.3317 0.418022 2.40327
208 1 13.0541 13.2163 0.958224
209 1 8.42533 1.38062 0.85838
210 1 9.55886 2.60929 0.914519
211 1 9.01394 1.33038 1.6246
212 1 9.63185 0.70701 0.0560578
213 1 9.55601 1.45357 0.80213
214 1 10.2021 2.97414 12.186
215 1 10.1794 1.66444 2.24645
216 1 10.6402 1.254 0.78753
217 1 11.0968 1.06449 1.68911
218 1 11.831 1.99563 0.882358
219 1 11.1476 1.69069 2.46298
220 1 11.7328 0.93967 0.927253
221 1 12.3385 0.907339 1.52569
222 1 12.4451 0.426497 12.0722
223 1 12.139 1.34839 2.46703
224 1 0.745796 13.0616 0.836054
225 1 8.8678 2.36969 1.66989
226 1 8.94752 3.22235 12.2501
227 1 9.4559 2.96422 3.23132
228 1 9.99688 2.37308 1.74529
229 1 10 1.06645 1.61895
230 1 10.0292 2.41034 11.4952
231 1 10.1369 3.04315 2.45751
232 1 10.5846 2.2342 0.94019
233 1 11.2333 2.20719 1.57003
234 1 12.164 2.55106 12.099
235 1 11.1457 2.80115 2.54078
236 1 11.7611 2.61036 0.0581104
237 1 12.2614 2.05394 1.73588
238 1 11.8127 3.80078 12.9189
239 1 12.2946 2.57554 2.4625
240 1 12.9144 1.41501 12.9443
241 1 9.10658 2.98627 2.4214
242 1 9.56035 4.66305 0.755779
243 1 8.94591 3.59825 1.76509
244 1 9.51405 3.56225 0.856219
245 1 10.0948 3.58435 1.75483
246 1 10.7166 3.97691 0.161807
247 1 10.1103 4.62181 1.62313
248 1 9.98839 3.52597 11.2937
249 1 11.2507 3.17128 1.61644
250 1 12.3329 3.70987 12.1414
251 1 11.3236 4.48655 1.55749
252 1 11.9116 4.32407 0.817465
253 1 12.3379 3.22105 1.61776
254 1 12.858 3.08911 0.799418
255 1 12.456 3.66035 2.55824
256 1 12.8894 2.53939 12.9238
257 1 9.38816 0.79408 3.41474
258 1 9.62157 0.183865 4.1088
259 1 10.6601 0.596309 3.23914
260 1 10.6341 0.0881449 4.10196
261 1 11.6962 0.378477 3.28916
262 1 11.6936 13.3244 4.13399
263 1 12.8808 0.247521 3.3017
264 1 12.919 13.1079 4.1316
265 1 8.90757 1.87198 2.59682
266 1 9.62926 1.43338 4.05864
267 1 10.5325 1.62838 3.29534
268 1 10.612 1.06204 4.27672
269 1 11.5627 1.51543 3.38493
270 1 11.8062 0.965819 4.05014
271 1 12.7321 1.48388 3.08484
272 1 12.8602 0.908421 3.96187
273 1 9.49775 2.4091 4.05466
274 1 9.67618 1.85467 3.07102
275 1 10.5835 2.75278 3.33868
276 1 10.6371 2.30489 4.11877
277 1 11.7632 2.6764 3.31715
278 1 11.8986 2.13045 4.0425
279 1 12.8983 2.38366 3.24214
280 1 12.8868 1.87622 4.16266
281 1 10.2757 4.0751 2.5105
282 1 9.57064 4.10283 3.33221
283 1 12.9945 3.58216 3.47465
284 1 10.5879 3.43937 4.16258
285 1 11.3291 3.87676 2.29701
286 1 11.6972 3.28468 4.11117
287 1 11.7728 3.7765 3.16841
288 1 12.8839 2.99746 4.09593
289 1 0.0344583 4.03973 1.59313
290 1 0.619131 4.6701 12.9211
291 1 13.2908 4.58432 2.46465
292 1 0.647717 4.07905 0.816077
293 1 1.11496 4.17287 1.70163
294 1 1.69854 4.68009 12.8757
295 1 1.09524 4.83597 2.50036
296 1 1.82516 4.12279 0.859723
297 1 2.30073 4.24143 1.83413
298 1 2.82689 4.84245 12.8903
299 1 2.2236 4.87779 2.45629
300 1 2.79593 4.16257 0.858029
301 1 3.28683 4.47364 1.60826
302 1 3.99966 4.88098 12.8858
303 1 3.41192 4.88917 2.45114
304 1 3.87641 4.42595 0.851773
305 1 0.00115992 5.18571 1.61066
306 1 0.581095 5.72799 12.8785
307 1 0.0375573 5.87932 2.38941
308 1 0.565416 5.20684 0.797765
309 1 1.09438 5.26739 1.58
310 1 1.77426 5.87031 0.00178406
311 1 1.1658 5.88657 2.39704
312 1 1.71684 5.23924 0.762611
313 1 2.15923 5.36941 1.48708
314 1 2.80924 6.02102 0.0166892
315 1 2.26462 5.91255 2.37268
316 1 2.84344 5.35243 0.76154
317 1 3.36655 5.5298 1.6325
318 1 3.88002 5.97445 12.9258
319 1 3.35456 6.04919 2.41259
320 1 3.90639 5.51052 0.773495
321 1 0.0474133 6.37144 1.63276
322 1 0.514908 6.94179 12.8647
323 1 13.3693 6.99742 2.43873
324 1 0.52543 6.227 0.719047
325 1 1.12284 6.38312 1.58268
326 1 1.81686 7.06635 12.8407
327 1 1.10378 6.98284 2.38698
328 1 1.4549 6.46614 0.641256
329 1 2.14616 6.42338 1.48541
330 1 2.83684 7.11446 12.9347
331 1 2.23601 6.9526 2.34111
332 1 2.80399 6.50319 0.737598
333 1 3.35212 6.60657 1.67497
334 1 4.05608 7.06595 0.0482651
335 1 3.32546 7.20094 2.37067
336 1 3.95673 6.50965 0.848927
337 1 13.4032 7.48724 1.65336
338 1 0.503549 8.06892 0.0499335
339 1 13.4358 8.05573 2.46716
340 1 0.639415 7.34745 0.793788
341 1 1.03883 7.48216 1.61316
342 1 1.53709 8.05086 12.8574
343 1 1.13084 8.14427 2.39764
344 1 1.72497 7.46612 0.822528
345 1 2.24249 7.53294 1.52288
346 1 2.92165 8.25843 0.0177556
347 1 2.19385 8.06739 2.36884
348 1 2.8176 7.67008 0.754552
349 1 3.4271 7.74114 1.44676
350 1 3.84763 8.36982 0.0540894
351 1 2.76818 9.36258 3.2576
352 1 4.00765 7.7216 0.723536
353 1 0.524558 4.78395 3.13762
354 1 0.542325 4.15013 3.99666
355 1 1.61458 4.67133 3.27012
356 1 1.6908 4.16279 4.17443
357 1 2.72848 4.98095 3.25563
358 1 2.83038 4.24098 3.92295
359 1 4.01197 5.13098 3.21678
360 1 3.90327 4.56315 3.993
361 1 0.504915 5.83233 3.25499
362 1 0.651136 5.15702 4.01761
363 1 1.67255 5.9085 3.23599
364 1 1.75796 5.35482 3.92301
365 1 2.79458 6.00913 3.27425
366 1 2.86099 5.38658 4.09757
367 1 3.92603 6.11976 3.16916
368 1 4.00491 5.74073 4.18601
369 1 0.365206 6.86725 3.24572
370 1 0.708678 6.32511 3.93772
371 1 1.60231 6.9594 3.13997
372 1 1.7209 6.47335 3.97781
373 1 2.74007 7.03851 3.30017
374 1 2.85563 6.50005 4.12184
375 1 4.88031 7.48445 3.12981
376 1 3.33351 6.61153 4.96372
377 1 0.516219 7.99236 3.26579
378 1 0.598033 7.50987 4.03056
379 1 1.63861 7.97973 3.23945
380 1 1.71702 7.52108 4.12175
381 1 3.85737 8.34006 3.19113
382 1 2.84614 7.63943 3.91311
383 1 3.82101 7.2074 3.21436
384 1 3.954 7.78713 3.98657
385 1 4.41329 4.3704 1.65098
386 1 5.13028 5.13503 0.080501
387 1 4.50041 5.00689 2.40239
388 1 4.89718 4.65953 0.892879
389 1 5.48767 5.10212 2.50968
390 1 6.13279 4.74015 0.736636
391 1 6.10521 5.51659 3.11971
392 1 5.58406 4.67781 1.58461
393 1 6.64072 4.85818 1.61732
394 1 6.66354 5.37137 12.2541
395 1 6.74353 5.30754 2.44171
396 1 7.28991 4.89887 0.986046
397 1 7.95648 4.80669 1.71348
398 1 8.32565 5.33742 0.00505397
399 1 8.05965 5.43304 2.41217
400 1 8.41558 4.78734 0.831289
401 1 4.42709 5.57932 1.81619
402 1 5.02052 6.17609 0.020464
403 1 4.58698 6.24763 2.40118
404 1 4.95775 5.77865 0.925405
405 1 5.62392 5.68711 1.60435
406 1 6.19861 6.42944 12.8771
407 1 6.23476 6.56982 3.36256
408 1 6.08607 5.8777 0.823641
409 1 6.70843 5.96329 1.66827
410 1 7.26438 5.88626 0.890864
411 1 6.74674 6.57849 2.42465
412 1 7.2901 5.48806 0.0576421
413 1 7.89488 5.90347 1.64642
414 1 8.28898 6.38913 12.9006
415 1 7.82256 6.56871 2.31674
416 1 8.50265 5.95094 0.823287
417 1 4.55199 6.83752 1.63654
418 1 5.06556 7.355 0.0485679
419 1 4.38169 7.42019 2.28945
420 1 5.12061 6.9148 0.805149
421 1 5.66827 6.34715 2.35504
422 1 6.36463 7.66855 0.0648443
423 1 5.57647 7.08574 1.68202
424 1 6.08058 6.98191 0.795489
425 1 6.71661 7.01063 1.55047
426 1 7.36015 7.70431 0.0461633
427 1 6.8494 7.56045 2.51225
428 1 7.29824 7.15423 0.860553
429 1 7.89845 7.03602 1.51514
430 1 8.46975 7.05942 0.737653
431 1 7.94362 7.63715 2.28261
432 1 8.95134 6.99032 1.7188
433 1 4.6455 8.02424 1.56951
434 1 5.06091 8.59523 12.9227
435 1 4.44029 8.43081 2.55867
436 1 5.0264 8.05389 0.765199
437 1 5.58672 7.4792 2.5276
438 1 6.04477 8.63912 12.9502
439 1 5.65179 8.10232 1.67836
440 1 6.13986 8.15406 0.814104
441 1 6.7329 8.02754 1.61827
442 1 7.21544 8.81777 12.8589
443 1 6.7908 8.64155 2.36149
444 1 7.36122 8.36838 0.805534
445 1 7.78475 8.14499 1.5996
446 1 8.40078 8.13987 0.802088
447 1 8.00063 9.30516 1.65076
448 1 8.49364 7.63258 12.893
449 1 5.01572 5.27447 3.32028
450 1 5.0521 4.07344 3.24994
451 1 6.13699 5.81838 4.04093
452 1 6.27406 4.26657 3.26633
453 1 7.27279 5.46084 3.1342
454 1 7.28006 4.90486 3.95484
455 1 8.37662 5.96016 3.96523
456 1 8.46005 3.79811 4.04473
457 1 4.97138 5.879 4.00406
458 1 4.48884 5.04925 5.70582
459 1 6.13034 6.97815 4.14538
460 1 6.14298 7.59827 3.21169
461 1 7.26658 6.54764 3.30882
462 1 8.55238 6.45017 6.64052
463 1 8.28465 6.47358 3.19578
464 1 7.81787 6.52497 5.77838
465 1 5.09006 7.96062 4.1047
466 1 5.14568 6.39375 3.21542
467 1 6.24403 8.7575 3.28888
468 1 5.02405 6.9228 4.0994
469 1 6.04428 8.15826 3.99128
470 1 7.37623 7.7031 3.27649
471 1 8.31091 7.49885 3.34368
472 1 8.40733 7.0636 4.21313
473 1 5.10942 8.51491 3.17417
474 1 4.5672 7.87976 4.84304
475 1 5.64809 8.0003 4.92768
476 1 6.58112 8.29033 4.88394
477 1 7.34146 8.72056 3.17637
478 1 6.70748 9.37145 4.78926
479 1 7.92724 8.78393 2.42187
480 1 8.38386 8.14917 4.09862
481 1 9.16395 4.14877 2.47408
482 1 9.40816 5.1639 12.9418
483 1 9.04727 4.71392 1.57094
484 1 10.1578 5.16542 2.39279
485 1 10.6593 3.46272 0.975208
486 1 10.2578 5.18783 12.117
487 1 10.1025 5.7536 1.55809
488 1 10.538 4.99406 0.0278728
489 1 10.7453 4.57915 0.822778
490 1 12.3445 4.78941 12.1405
491 1 11.1007 4.93664 2.46841
492 1 11.7772 4.96686 0.0440487
493 1 12.4063 4.23581 1.62408
494 1 12.9533 4.8042 12.8746
495 1 12.3264 4.85173 2.38914
496 1 12.9218 4.20459 0.727176
497 1 9.04638 5.23474 2.43606
498 1 9.5342 6.31704 12.8466
499 1 9.4054 6.26093 3.2315
500 1 8.99985 5.86982 1.74629
501 1 9.41736 5.75996 0.781145
502 1 10.7321 6.22968 12.8811
503 1 10.1759 6.3943 2.3715
504 1 10.4766 5.69875 0.627256
505 1 11.2141 5.56593 1.58757
506 1 11.3911 6.19428 12.1705
507 1 11.2765 5.99018 2.45264
508 1 11.6448 5.50677 0.84454
509 1 12.3439 5.38704 1.61447
510 1 12.9652 5.8453 0.0606591
511 1 12.4518 5.9394 2.52085
512 1 12.8812 5.28751 0.839418
513 1 8.91971 6.435 2.45839
514 1 9.59173 7.49899 0.0205515
515 1 8.92984 7.58447 2.49101
516 1 9.59295 6.85679 0.708433
517 1 10.0619 6.90373 1.52619
518 1 10.6791 7.3128 0.0283232
519 1 10.0472 7.34361 2.46307
520 1 10.7146 6.77571 0.788627
521 1 11.1629 6.67691 1.68544
522 1 11.84 7.17987 12.8885
523 1 11.3558 7.19188 2.54061
524 1 12.8184 6.36393 0.963541
525 1 12.2076 6.4543 1.73588
526 1 12.4209 7.11743 12.2083
527 1 12.3877 7.13901 2.42816
528 1 12.9341 6.79916 0.0712925
529 1 8.9194 8.11148 1.52158
530 1 9.97467 8.65179 12.1168
531 1 8.40526 8.65233 3.25725
532 1 9.58899 8.01434 0.812698
533 1 10.1707 7.90039 1.62501
534 1 10.6031 8.47886 12.8619
535 1 10.0221 8.41726 2.41248
536 1 10.6473 7.97344 0.758002
537 1 11.2201 7.7701 1.72497
538 1 11.6508 7.78256 0.849835
539 1 11.0876 8.42842 2.45098
540 1 11.8271 6.73633 0.911958
541 1 12.2999 7.68215 1.5716
542 1 12.7902 8.09416 0.0517185
543 1 12.7938 8.04668 3.23838
544 1 12.9779 7.54748 0.706529
545 1 9.53952 5.22603 3.31202
546 1 9.50254 3.53409 4.04131
547 1 10.6524 4.85035 3.62313
548 1 10.6579 3.95487 3.4213
549 1 11.6758 4.86566 3.29457
550 1 11.6768 4.3844 4.0727
551 1 12.761 4.64177 3.25606
552 1 12.8469 4.26267 4.15228
553 1 9.58006 6.7781 3.95684
554 1 9.41445 5.83451 4.2972
555 1 10.4711 5.98799 3.13148
556 1 10.6281 5.61177 4.06689
557 1 11.6366 5.96536 3.24971
558 1 11.7861 5.58238 4.02745
559 1 12.8243 5.92033 3.31497
560 1 12.9513 5.27519 4.01158
561 1 9.4543 8.61307 3.30067
562 1 9.43483 7.45593 3.27243
563 1 10.6375 7.28252 3.16515
564 1 10.6224 6.63455 3.91194
565 1 11.6857 7.00649 3.33821
566 1 11.7228 6.59068 4.16334
567 1 12.7393 7.05814 3.33287
568 1 12.9678 6.41106 4.18964
569 1 8.93969 8.63874 2.52397
570 1 9.00437 8.02505 4.79452
571 1 10.6119 8.42749 3.27069
572 1 10.5737 7.74509 4.11879
573 1 12.196 8.24838 2.5126
574 1 11.7236 8.83299 3.94412
575 1 12.9874 7.55157 4.10336
576 1 12.3578 7.62295 4.83795
577 1 0.0306055 8.53598 1.62129
578 1 13.3873 9.12883 12.1122
579 1 0.405146 9.16197 3.27226
580 1 0.593698 8.48072 0.8162
581 1 1.17091 8.66329 1.54595
582 1 1.69741 9.10264 0.181179
583 1 1.07592 9.17975 2.47791
584 1 1.8573 8.487 0.776286
585 1 2.29636 8.73646 1.702
586 1 2.82065 9.31715 12.8263
587 1 2.16154 9.41924 2.40515
588 1 2.81565 8.77067 0.916044
589 1 3.49848 8.77869 1.67121
590 1 3.69901 9.59443 0.00811815
591 1 3.23263 8.34412 2.45916
592 1 3.823 8.93856 0.739351
593 1 0.0170726 9.11282 2.36409
594 1 0.510888 9.59826 0.693635
595 1 0.069122 10.2832 2.40901
596 1 0.645531 9.07327 12.8526
597 1 1.20701 9.6503 1.59316
598 1 1.69748 10.3557 12.8694
599 1 1.06123 10.2712 2.35109
600 1 1.64085 9.84664 0.660097
601 1 2.23456 9.82094 1.4998
602 1 2.86975 10.5309 12.8634
603 1 2.26771 10.4348 2.32621
604 1 2.73719 9.90814 0.697683
605 1 3.3383 9.98516 1.59984
606 1 3.95964 10.5469 0.093572
607 1 3.34071 10.634 2.33592
608 1 3.88688 10.0978 0.920451
609 1 13.4064 10.8958 1.60741
610 1 0.625494 11.8744 0.840775
611 1 0.222659 11.3682 2.44114
612 1 0.61775 10.2486 12.8258
613 1 0.507286 10.6387 0.704186
614 1 2.7683 11.6151 0.118694
615 1 1.23395 11.5034 2.36851
616 1 1.04461 10.8145 1.49101
617 1 2.03827 10.9187 1.57705
618 1 2.87065 12.1938 0.884607
619 1 2.34566 11.5642 2.38524
620 1 1.62243 10.9881 0.631314
621 1 3.25072 11.1609 1.64269
622 1 3.86808 11.6578 0.0309769
623 1 3.44318 11.8019 2.35474
624 1 3.89216 11.1736 0.851911
625 1 13.4285 11.9388 1.56926
626 1 0.0839042 12.45 12.1756
627 1 13.3715 12.4119 2.42266
628 1 0.485794 12.433 0.147791
629 1 1.16894 12.0125 1.62325
630 1 1.82294 0.26065 12.8078
631 1 1.12207 12.5152 2.43034
632 1 1.65922 12.0578 0.577465
633 1 2.25304 12.1127 1.56174
634 1 1.77718 12.5934 12.911
635 1 2.40245 12.5976 2.41056
636 1 2.91469 12.602 12.8638
637 1 3.57825 12.3337 1.51479
638 1 3.99149 13.2079 0.572794
639 1 4.05939 12.9576 3.2795
640 1 4.09576 12.3583 0.57994
641 1 0.71505 9.74211 4.05396
642 1 0.478839 8.65399 4.09715
643 1 1.64425 9.1507 3.20465
644 1 1.63267 8.55955 4.06304
645 1 2.60137 8.28185 3.27497
646 1 2.87432 8.71532 4.1184
647 1 3.32934 9.5202 2.38255
648 1 3.87323 9.64615 3.24498
649 1 0.524032 10.2833 3.23806
650 1 13.4313 9.75646 4.77395
651 1 1.64839 10.5084 3.05358
652 1 1.6998 9.65435 3.90613
653 1 2.81491 10.3975 3.15402
654 1 2.75645 9.78985 4.04769
655 1 3.90851 10.714 3.24604
656 1 3.86719 10.0365 4.12968
657 1 0.651648 11.3989 3.30459
658 1 0.677538 10.8079 4.06869
659 1 1.76021 11.5983 3.25459
660 1 1.77894 10.7578 3.94392
661 1 2.90534 11.585 3.16987
662 1 2.82272 10.9264 3.88739
663 1 3.96516 11.8437 3.08798
664 1 3.91549 11.1908 4.07795
665 1 0.707229 13.1647 4.00617
666 1 0.628082 12.5651 3.26892
667 1 1.73158 12.7577 3.06196
668 1 1.73294 12.0182 4.03187
669 1 2.94899 12.755 3.29479
670 1 2.85361 12.0737 3.98507
671 1 3.83739 13.403 4.01118
672 1 3.93901 12.2132 3.99657
673 1 4.49248 9.03632 1.65125
674 1 4.87345 9.69653 0.059742
675 1 4.43611 9.66792 2.44984
676 1 4.82797 9.22673 0.833222
677 1 5.52667 9.21162 1.41096
678 1 6.16556 10.9034 0.0893939
679 1 5.54963 9.64303 2.35028
680 1 6.23143 9.24167 0.738667
681 1 6.76452 9.20011 1.62216
682 1 7.25968 9.85865 12.9306
683 1 6.63622 9.7216 2.24817
684 1 7.2815 9.46805 0.848896
685 1 8.32437 9.36739 0.631823
686 1 8.37867 9.93508 12.9479
687 1 7.86078 10.3148 1.57176
688 1 8.3672 8.7004 0.0469522
689 1 4.5098 10.165 1.59222
690 1 4.99159 10.8647 12.9408
691 1 4.52365 10.7091 2.41882
692 1 5.04797 10.2862 0.791306
693 1 5.6726 10.322 1.72806
694 1 5.57804 10.9314 12.2053
695 1 5.51405 10.8764 2.37288
696 1 5.97454 9.7098 0.0290775
697 1 6.17668 10.3885 0.830041
698 1 7.34742 10.9491 0.0629594
699 1 6.73138 10.9031 2.45348
700 1 6.70946 10.3762 1.5869
701 1 7.38655 10.461 0.804322
702 1 8.44124 10.9922 12.8867
703 1 7.79585 10.911 2.36176
704 1 8.44965 10.534 0.803931
705 1 4.42669 11.3294 1.56351
706 1 5.07735 11.9565 0.0476324
707 1 4.5928 11.8378 2.40322
708 1 5.08566 11.3863 0.866061
709 1 5.7264 11.5503 1.61023
710 1 6.13812 11.9075 12.9336
711 1 5.73803 12.0717 2.38235
712 1 6.12952 11.5812 0.849575
713 1 6.77679 11.4088 1.60369
714 1 7.35397 12.1325 0.109186
715 1 6.8865 12.0695 2.3072
716 1 7.3641 11.5598 0.873694
717 1 7.94141 11.5176 1.70364
718 1 8.45884 12.049 0.0168138
719 1 7.99779 12.0747 2.40449
720 1 8.49554 11.5886 0.902266
721 1 4.60789 12.4617 1.56456
722 1 5.01262 13.2149 12.9043
723 1 4.49417 0.749678 2.15081
724 1 5.19214 12.614 0.688509
725 1 5.57057 12.738 1.61032
726 1 6.20091 13.214 12.9197
727 1 5.58952 13.2985 2.3417
728 1 6.18511 12.6574 0.726596
729 1 6.62162 12.641 1.83185
730 1 7.37149 13.2663 12.9331
731 1 6.71616 13.3167 2.50999
732 1 7.11184 12.721 0.8474
733 1 7.75115 12.6598 1.634
734 1 8.31823 13.1795 0.130091
735 1 7.89936 13.1951 2.46592
736 1 8.36462 12.5544 0.883727
737 1 5.02053 9.58514 3.21109
738 1 5.02917 9.13586 3.91856
739 1 6.08322 9.84282 3.12046
740 1 6.15552 9.30086 4.03411
741 1 7.75544 9.95719 2.50133
742 1 7.38283 9.27976 4.04065
743 1 8.35842 9.98124 3.34829
744 1 8.83615 9.19577 4.96591
745 1 5.05367 10.8248 3.26219
746 1 4.93236 10.2653 3.94155
747 1 6.15333 10.8932 3.14352
748 1 6.11863 10.3541 3.95469
749 1 7.33783 11.1118 3.19758
750 1 7.15339 10.4957 3.91763
751 1 8.40801 11.0084 3.30999
752 1 8.29588 10.4784 4.19273
753 1 5.11918 11.9489 3.27669
754 1 5.16245 11.4008 4.03961
755 1 6.25962 11.9777 3.15116
756 1 6.15717 11.5013 4.07678
757 1 7.34897 12.2424 3.27265
758 1 7.26524 11.5677 4.00649
759 1 8.46507 12.1437 3.25574
760 1 8.50024 11.6269 4.02823
761 1 5.0789 0.140046 4.12503
762 1 5.08901 12.5278 4.02542
763 1 6.16335 13.0743 3.27253
764 1 6.25357 12.5454 3.97704
765 1 7.27075 13.2711 3.23935
766 1 7.35191 12.7127 4.05127
767 1 8.36972 13.3405 3.27237
768 1 8.35978 12.7071 4.10808
769 1 8.96523 9.20142 1.57382
770 1 9.56551 9.13835 0.766747
771 1 8.89585 9.76627 2.46401
772 1 9.54401 9.71611 12.9131
773 1 10.0521 8.98472 1.60407
774 1 10.1196 9.80915 12.1741
775 1 10.128 9.589 2.33369
776 1 10.6981 8.91866 0.9254
777 1 11.2753 8.9962 1.73057
778 1 11.8345 9.37559 0.0415523
779 1 11.2703 9.58256 2.55851
780 1 11.7718 8.81113 0.829468
781 1 12.357 8.67332 1.53116
782 1 12.9134 9.3545 12.9275
783 1 12.3885 9.13589 2.3815
784 1 12.8934 8.79397 0.713787
785 1 8.94438 10.3346 1.74107
786 1 9.63 10.7413 0.0834048
787 1 8.9556 10.8802 2.53023
788 1 9.46508 10.2122 0.878592
789 1 10.1175 10.168 1.62888
790 1 11.197 10.0205 1.58693
791 1 10.131 10.74 2.53
792 1 10.6802 9.4987 0.0675677
793 1 11.8652 9.83539 0.748273
794 1 11.703 10.541 0.0161276
795 1 11.8664 10.6268 3.29387
796 1 13.0489 9.86326 0.932697
797 1 12.341 9.82365 1.58858
798 1 12.8324 10.3186 12.7909
799 1 12.3894 10.3553 2.36719
800 1 0.0821652 9.68255 1.63858
801 1 9.01816 11.4313 1.61133
802 1 9.41224 11.8496 0.0297057
803 1 9.03849 11.9749 2.44428
804 1 9.63509 11.3135 0.859969
805 1 10.1598 11.2308 1.74838
806 1 10.5879 11.8596 0.0117983
807 1 10.1287 11.9023 2.42414
808 1 10.5812 10.0278 0.827012
809 1 10.6535 11.3332 0.89343
810 1 11.7207 10.9495 0.82985
811 1 11.2507 11.6657 2.54596
812 1 11.254 11.0645 1.67361
813 1 12.3902 11.0244 1.66525
814 1 12.8275 11.5325 0.0393236
815 1 12.4893 11.6135 2.47839
816 1 12.8665 10.8835 0.745559
817 1 9.01737 12.5906 1.62844
818 1 9.45585 13.0492 0.077211
819 1 8.93869 13.1753 2.35102
820 1 9.54316 12.4615 0.832649
821 1 10.1546 12.4451 1.6603
822 1 10.6208 12.8579 0.0428132
823 1 9.97796 12.9844 2.47343
824 1 10.6725 12.3774 0.912413
825 1 11.2809 12.1117 1.6946
826 1 13.3804 12.003 11.2972
827 1 11.1767 12.7523 2.51993
828 1 11.6969 12.1698 0.790407
829 1 12.3477 12.0937 1.61951
830 1 11.8629 12.7357 0.0203207
831 1 12.3491 12.6821 2.4568
832 1 12.7946 12.1173 0.80652
833 1 9.49378 9.69861 3.11524
834 1 10.0946 8.91483 4.79936
835 1 10.4515 9.53409 3.25416
836 1 10.6232 8.88325 4.08656
837 1 11.2987 10.5448 2.47561
838 1 11.7146 8.17665 3.29814
839 1 12.8335 9.12535 3.39258
840 1 12.7317 8.72367 4.15231
841 1 9.50731 10.8274 3.23441
842 1 9.53295 10.2162 4.03428
843 1 10.718 10.6928 3.25764
844 1 10.701 10.1256 3.98051
845 1 11.7349 9.98825 3.97786
846 1 11.7383 9.35587 3.19509
847 1 12.9148 10.2407 3.16821
848 1 12.8182 9.92511 4.08441
849 1 9.56304 11.9761 3.28184
850 1 9.5467 11.3829 4.02468
851 1 10.6338 11.7995 3.36455
852 1 10.6803 11.3133 4.13095
853 1 11.8823 11.6876 3.27645
854 1 11.7434 11.095 4.08377
855 1 13.0098 11.4174 3.22033
856 1 13.0422 10.9189 4.01638
857 1 9.40544 13.0674 3.31566
858 1 9.55819 12.465 4.18126
859 1 10.6059 12.883 3.25761
860 1 10.7364 12.483 4.12227
861 1 11.8888 12.8229 3.20021
862 1 11.824 12.2802 3.98587
863 1 13.0577 12.6405 3.31652
864 1 12.8803 11.9818 4.10038
865 1 0.188423 13.1194 4.81007
866 1 0.129556 0.288323 5.6139
867 1 1.26154 13.114 4.86906
868 1 1.21752 0.219958 5.75979
869 1 2.2799 12.5217 5.51179
870 1 2.3326 13.2308 4.89372
871 1 3.40156 13.1619 4.83853
872 1 3.55288 0.519807 5.65107
873 1 13.4074 0.794441 4.92765
874 1 13.4301 1.39195 5.64567
875 1 1.23405 0.633714 4.89056
876 1 1.11889 1.18832 5.7052
877 1 2.45984 0.268594 5.74288
878 1 2.23214 1.40837 5.73553
879 1 2.79229 0.943128 3.90588
880 1 3.38617 1.5887 5.59598
881 1 0.0443601 1.99769 4.88706
882 1 13.4108 2.46655 5.75573
883 1 1.02545 1.77124 5.00022
884 1 1.14467 2.43334 5.68577
885 1 2.1025 1.97461 4.77924
886 1 2.35725 2.43838 5.72265
887 1 3.4595 2.67033 5.58375
888 1 3.90951 2.70028 6.45248
889 1 13.4136 3.00551 4.88411
890 1 13.2844 3.61123 5.69677
891 1 1.09099 2.93746 4.90007
892 1 1.10122 3.58166 5.81361
893 1 2.22228 3.0018 4.95553
894 1 2.11887 3.55767 5.57444
895 1 3.39056 3.22798 4.7469
896 1 3.38333 3.66672 5.62408
897 1 0.088198 13.0866 8.00596
898 1 0.696955 0.181496 6.60995
899 1 0.677163 13.0364 7.37941
900 1 1.36555 13.1562 8.15055
901 1 1.95559 0.0360818 6.46706
902 1 1.83688 13.0077 7.38509
903 1 2.53965 13.1286 8.06667
904 1 3.01783 0.241152 6.52132
905 1 3.00273 13.176 7.37313
906 1 3.47206 0.142304 8.68948
907 1 4.15375 0.332034 6.49391
908 1 3.88119 13.4045 7.28974
909 1 0.0385592 0.862577 8.14339
910 1 0.505423 1.35699 6.48996
911 1 0.624046 0.68161 7.34789
912 1 1.18188 0.732768 8.12392
913 1 1.74307 1.24255 6.51081
914 1 1.7789 0.690369 7.22845
915 1 2.21669 0.686984 8.06174
916 1 2.88503 1.28887 6.46375
917 1 2.84434 0.954213 7.38892
918 1 3.03342 0.381393 9.66539
919 1 3.85694 2.13969 7.28547
920 1 4.01431 1.06885 7.37154
921 1 0.031616 1.92991 8.05569
922 1 0.568867 2.55595 6.43847
923 1 0.639793 1.83675 7.21445
924 1 1.16625 1.80049 8.03894
925 1 1.66351 2.44111 6.43527
926 1 1.63642 1.83637 7.23719
927 1 2.24241 1.92018 8.17138
928 1 2.75981 2.52164 6.49636
929 1 2.79797 1.9654 7.30117
930 1 3.30151 1.45013 8.88327
931 1 3.36041 3.18799 8.04256
932 1 3.40665 1.99261 8.12115
933 1 0.0316195 2.95534 8.17227
934 1 0.532125 3.6516 6.48126
935 1 0.532415 2.92536 7.3009
936 1 1.06638 3.01452 8.05423
937 1 1.81558 3.49671 6.62457
938 1 1.70066 2.84051 7.34191
939 1 2.24264 3.17406 7.96799
940 1 2.76718 3.69217 6.36741
941 1 2.92392 3.16162 7.19239
942 1 3.38569 3.72913 8.66397
943 1 4.56788 3.99328 5.7045
944 1 3.85123 1.49335 6.51319
945 1 4.50019 0.0253932 4.7985
946 1 4.53317 0.65165 5.54413
947 1 5.70826 0.16575 4.82658
948 1 5.58227 0.789798 5.67197
949 1 6.66001 0.313903 4.83169
950 1 6.76252 0.910288 5.61009
951 1 7.74081 0.487624 4.91267
952 1 8.33274 0.83339 6.66957
953 1 3.23748 0.959361 4.88789
954 1 3.99099 3.31474 4.00693
955 1 5.66499 1.30842 4.84076
956 1 5.66805 1.9873 5.62372
957 1 6.74515 1.57664 4.96226
958 1 6.66352 3.0061 5.77773
959 1 7.78824 1.48212 4.80031
960 1 7.90114 2.05627 5.78976
961 1 4.49173 1.70166 5.52447
962 1 5.03272 3.4566 7.32965
963 1 5.70382 2.53638 4.87104
964 1 5.02756 2.98174 6.48808
965 1 6.72543 2.66049 4.79875
966 1 6.632 4.15144 5.56652
967 1 7.82065 2.54383 4.86511
968 1 7.8703 3.06745 5.74277
969 1 5.4635 3.69979 4.63626
970 1 3.91172 3.90944 6.41946
971 1 5.05349 4.64986 4.03123
972 1 5.49226 4.77316 4.96624
973 1 6.84919 3.74014 4.85099
974 1 6.73204 4.82582 4.7403
975 1 7.75357 4.31893 5.65172
976 1 8.34017 4.25654 6.58274
977 1 4.41636 0.0210177 8.06362
978 1 5.13427 0.711274 6.4655
979 1 5.08742 0.223287 7.38866
980 1 5.55217 0.281212 8.16335
981 1 6.19168 1.00842 6.4055
982 1 6.13454 0.227294 7.21793
983 1 6.72236 13.1754 8.84938
984 1 7.85786 0.972534 5.68193
985 1 6.65722 0.42025 8.27515
986 1 7.79129 0.381899 8.01418
987 1 8.3958 0.206731 7.46738
988 1 8.3803 13.1975 6.48205
989 1 4.62437 1.23826 8.09067
990 1 4.97265 1.91592 6.30917
991 1 5.11808 1.31693 7.22219
992 1 5.68964 1.23708 8.11979