data.lammps (converted from cfg to data.lammps)
    
2298  atoms
1  atom types
0.0   13.4375  xlo xhi
0.0   13.4375  ylo yhi
0.0   12.952  zlo zhi
0.0  0.0 0.0 xy xz yz
    
    
    
Atoms
  
1 1 13.3641 0.87855 2.43047
2 1 0.600291 0.939534 12.8846
3 1 13.2933 1.37861 1.56518
4 1 0.428975 0.356146 0.866671
5 1 1.00461 0.362377 1.51823
6 1 2.10504 0.943134 12.2145
7 1 1.12304 0.865121 2.47474
8 1 1.596 0.304553 0.878745
9 1 2.18365 0.245545 1.64534
10 1 2.78644 1.33491 0.760807
11 1 2.15877 0.859514 2.42713
12 1 2.6614 0.33728 0.807201
13 1 3.25843 0.231916 1.62396
14 1 3.90556 0.661468 12.8404
15 1 3.33191 0.860552 2.49361
16 1 3.7976 0.205985 0.791071
17 1 12.7949 1.32355 0.744098
18 1 0.493301 1.98491 12.9132
19 1 0.0287675 1.95397 2.36621
20 1 0.526132 1.52572 0.845507
21 1 1.11082 1.51945 1.60215
22 1 1.73922 2.14508 12.9107
23 1 1.02115 2.08815 2.3272
24 1 1.68845 1.52647 0.724071
25 1 2.21442 1.44546 1.64037
26 1 2.84448 1.97146 12.8776
27 1 2.20065 1.98773 2.36462
28 1 3.25522 2.04625 2.5085
29 1 3.88259 1.21896 0.867451
30 1 3.86917 1.82535 0.033672
31 1 5.01529 1.55675 3.24747
32 1 5.0383 1.01955 0.79606
33 1 13.3272 2.59361 1.45569
34 1 0.581322 3.22871 0.0888077
35 1 13.4265 2.94848 2.47198
36 1 0.54364 2.54041 0.760749
37 1 1.51582 2.67418 0.86098
38 1 1.70349 3.26179 12.9013
39 1 1.198 3.25243 2.48267
40 1 2.16102 2.49825 1.5575
41 1 2.72287 2.50721 0.745613
42 1 2.76584 3.038 12.9239
43 1 2.14059 3.10963 2.51176
44 1 3.23806 2.34587 1.55412
45 1 3.33556 1.27357 1.7353
46 1 3.82838 2.93873 12.8303
47 1 2.81987 3.00422 3.32519
48 1 3.97491 2.35886 0.747702
49 1 0.0659257 3.6378 1.6019
50 1 0.571092 3.87609 0.705735
51 1 0.0175812 4.0683 2.39714
52 1 1.16267 3.79077 1.58737
53 1 0.968419 2.73226 1.69819
54 1 1.67926 4.36997 12.9308
55 1 1.17493 4.30644 2.4807
56 1 1.65293 3.72877 0.836764
57 1 2.2896 3.54849 1.76748
58 1 2.7545 4.06165 12.904
59 1 2.28767 4.26581 2.44553
60 1 2.6861 3.60065 0.787773
61 1 3.36964 3.48339 1.48843
62 1 3.96058 4.05181 12.846
63 1 3.45251 4.00802 2.5037
64 1 3.91606 3.41786 0.75335
65 1 0.489804 0.969796 3.26924
66 1 0.372664 0.170264 4.13752
67 1 1.68039 1.13145 3.2745
68 1 1.63909 0.541793 4.10999
69 1 2.6519 0.762178 3.26357
70 1 2.79269 0.247226 4.04655
71 1 3.76986 0.628368 3.19026
72 1 3.8575 0.142061 3.99219
73 1 0.532156 1.98272 3.22795
74 1 0.624768 1.17802 4.11472
75 1 1.61785 2.06651 3.28779
76 1 1.61908 1.5483 4.25534
77 1 2.76486 1.89134 3.20686
78 1 2.88875 1.38273 4.03023
79 1 4.03645 2.24866 4.13941
80 1 4.49552 1.65171 2.47483
81 1 0.580258 3.14092 3.18213
82 1 0.51973 2.49426 4.04725
83 1 1.72562 3.14824 3.4078
84 1 1.61085 2.5063 4.19054
85 1 2.76749 2.4465 4.06304
86 1 3.42678 2.46139 4.78659
87 1 3.24048 3.1039 2.35022
88 1 4.69778 2.34683 4.78593
89 1 0.571172 4.35813 3.21213
90 1 0.585026 3.65589 3.87572
91 1 1.73524 4.35921 3.26499
92 1 1.58838 3.80692 4.10462
93 1 2.84577 4.12328 3.17834
94 1 2.83687 3.66955 4.07132
95 1 4.11569 4.02559 3.28105
96 1 3.86706 2.91422 3.37762
97 1 4.39121 13.4275 1.73773
98 1 4.91153 0.446364 0.0479683
99 1 4.46798 0.605992 2.3618
100 1 4.94481 13.3841 0.945148
101 1 5.5491 13.2892 1.64227
102 1 6.11937 0.38454 0.0118491
103 1 5.63359 0.365038 2.42372
104 1 6.13912 13.1865 0.824628
105 1 6.6464 13.1551 1.69687
106 1 7.27286 0.200875 12.9252
107 1 6.59468 0.27002 2.57188
108 1 7.69402 13.01 1.63781
109 1 7.27332 13.0871 0.782805
110 1 7.857 0.261885 12.153
111 1 7.89828 0.151144 2.39468
112 1 8.38892 12.8877 0.829046
113 1 4.48377 1.09264 1.58
114 1 4.98248 1.64967 0.0410643
115 1 3.99555 1.84744 3.22303
116 1 5.54115 0.974764 1.59881
117 1 6.29668 0.811754 0.786948
118 1 6.11598 1.94179 0.896006
119 1 5.53016 1.53384 2.44012
120 1 6.13587 1.48448 12.9483
121 1 6.7836 0.735543 1.65226
122 1 6.69706 1.48162 12.1763
123 1 6.66921 1.3381 2.40304
124 1 7.43197 0.77995 0.703356
125 1 7.78541 0.762264 1.62528
126 1 8.91093 1.40986 12.1731
127 1 7.80786 1.35154 2.44567
128 1 8.45393 1.24636 0.0472097
129 1 4.351 2.2588 1.63141
130 1 5.09076 2.78092 12.894
131 1 4.30998 2.84665 2.41425
132 1 5.04878 2.21004 0.811632
133 1 5.57191 2.13113 1.67134
134 1 6.21132 2.50909 0.124089
135 1 5.49431 2.66396 2.59285
136 1 6.74001 1.83028 1.53458
137 1 7.83547 2.36691 2.35321
138 1 7.94678 2.42707 12.12
139 1 6.72293 2.34705 2.38703
140 1 7.27262 1.31071 0.0126758
141 1 7.39875 2.00724 0.89335
142 1 8.46016 2.49671 0.0337488
143 1 7.82378 2.96317 1.51292
144 1 7.97921 1.80949 1.55566
145 1 4.48388 3.3555 1.64817
146 1 5.01897 3.83291 0.0254262
147 1 4.52838 3.97671 2.38646
148 1 5.0629 3.24086 0.805649
149 1 5.59845 3.22212 1.66152
150 1 6.08212 3.78713 0.0860313
151 1 5.494 3.68378 2.46425
152 1 6.09052 3.14464 0.761001
153 1 7.39804 3.46271 12.9255
154 1 6.67443 3.65472 12.3676
155 1 6.61477 3.00635 1.69626
156 1 7.10476 2.99925 0.881068
157 1 7.74022 3.43403 2.47462
158 1 8.35782 3.53452 0.129258
159 1 8.42506 3.57593 3.1277
160 1 8.64485 3.03192 0.965763
161 1 5.02612 0.435567 3.09729
162 1 4.99781 13.3854 4.07076
163 1 6.08754 0.247231 3.41908
164 1 6.06254 13.0563 4.08519
165 1 7.24313 0.107764 3.17184
166 1 7.13468 13.0809 4.00837
167 1 8.38868 0.127292 3.20647
168 1 8.35487 13.0367 4.05651
169 1 5.03236 0.943658 3.94122
170 1 4.46853 1.06937 4.75548
171 1 6.18929 1.41333 3.25664
172 1 6.13997 0.917017 4.03342
173 1 7.29092 1.22982 3.24179
174 1 7.34921 0.712605 4.02955
175 1 8.33872 1.31685 3.18474
176 1 8.33473 0.681438 4.04074
177 1 4.9357 2.83261 3.31583
178 1 5.15747 2.17643 3.92565
179 1 6.26519 2.6185 3.07127
180 1 6.15196 2.04352 3.95243
181 1 7.39542 2.50064 3.12542
182 1 7.26838 1.90502 3.83033
183 1 8.53109 2.46203 3.27372
184 1 8.38444 1.89348 4.16677
185 1 5.20449 3.31273 4.10102
186 1 4.54561 3.49564 4.84122
187 1 6.66462 3.60446 2.32071
188 1 6.2215 3.03036 4.04781
189 1 7.26967 3.72277 3.24401
190 1 7.24936 2.97963 4.05166
191 1 8.48137 4.63427 3.20689
192 1 7.87421 2.90833 4.88083
193 1 8.88052 13.1145 1.71117
194 1 8.89463 0.274149 12.0521
195 1 9.00566 0.275329 2.43516
196 1 9.53923 13.1253 0.736128
197 1 9.95969 13.3412 1.60321
198 1 10.5923 0.452832 0.0517979
199 1 10.0617 0.343143 2.4562
200 1 10.5453 13.3767 0.82687
201 1 11.0701 0.055534 1.60879
202 1 11.0909 0.568565 12.257
203 1 11.1697 0.561669 2.39506
204 1 11.7172 0.0908558 0.963078
205 1 12.2215 0.254328 1.72398
206 1 11.7267 0.540483 12.8963
207 1 12.2413 0.942157 2.40252
208 1 12.7632 0.273988 0.884391
209 1 8.42312 0.601633 0.82598
210 1 9.60048 2.01782 0.808667
211 1 8.87376 0.891601 1.56662
212 1 9.4908 0.367521 12.8559
213 1 10.0646 0.945999 1.60488
214 1 10.0692 2.60671 12.2484
215 1 9.60492 1.57794 3.23976
216 1 10.7663 1.0854 0.802857
217 1 11.1641 1.24071 1.53248
218 1 11.7366 2.5171 0.457586
219 1 11.1739 1.71215 2.39991
220 1 11.7484 1.1321 0.751737
221 1 12.2427 1.56102 1.48408
222 1 12.8823 0.858543 12.8902
223 1 12.3219 1.93319 2.42595
224 1 13.3552 0.226579 1.65845
225 1 9.11276 1.90525 1.64739
226 1 8.99448 2.42579 12.1788
227 1 8.89135 2.41094 2.42958
228 1 10.1245 2.17978 1.72565
229 1 10.1768 1.48243 2.41634
230 1 10.1054 2.13936 11.3913
231 1 10.2052 2.59825 2.5765
232 1 10.7016 2.12691 0.872532
233 1 11.3817 2.28463 1.5412
234 1 12.3386 2.49956 11.3594
235 1 11.3406 2.73792 2.49603
236 1 11.3018 2.81522 12.2157
237 1 12.5875 2.53128 0.981569
238 1 12.2961 2.94933 12.2848
239 1 12.4984 2.82924 2.15038
240 1 12.9882 1.91818 12.8691
241 1 9.10803 3.00976 1.66574
242 1 9.54218 4.22576 0.908219
243 1 8.99328 3.67255 2.38883
244 1 9.65546 3.14245 0.731771
245 1 10.1857 3.11418 1.74014
246 1 10.7599 3.81996 0.0933486
247 1 9.96451 3.79071 2.36909
248 1 10.1163 3.18862 11.4325
249 1 11.1604 3.35197 1.64691
250 1 12.2656 4.15626 12.1488
251 1 11.2796 4.43886 1.58602
252 1 11.831 3.45301 0.887803
253 1 12.3088 3.56905 1.78156
254 1 12.9298 3.69656 0.947695
255 1 12.3944 4.57951 1.72803
256 1 12.8516 3.07089 0.168546
257 1 9.45133 0.266338 3.27577
258 1 9.51496 13.1161 4.04332
259 1 10.5793 0.479262 3.24867
260 1 10.6374 13.4042 4.14215
261 1 11.6271 0.712832 3.20714
262 1 11.7413 0.0802263 4.11175
263 1 12.759 0.664311 3.25753
264 1 12.8724 0.341317 4.12135
265 1 9.00229 1.27079 2.53046
266 1 9.4032 1.02568 3.89573
267 1 10.6645 1.54877 3.29336
268 1 10.5134 1.00872 4.1138
269 1 11.7111 1.80701 3.27634
270 1 11.7645 1.16233 4.08156
271 1 12.879 1.89922 3.20111
272 1 12.7706 1.37683 3.90955
273 1 9.50936 2.63233 3.14153
274 1 9.39316 2.08648 4.12591
275 1 10.8342 2.91547 3.30554
276 1 10.5399 2.2999 3.87418
277 1 11.8611 2.97916 3.35557
278 1 11.68 2.34754 4.11696
279 1 12.8187 3.06841 3.27972
280 1 12.8499 2.51975 3.99501
281 1 9.55703 3.64905 3.36187
282 1 9.58891 3.04466 4.14406
283 1 12.0316 3.90924 2.81406
284 1 10.6213 3.36029 4.14208
285 1 11.1788 3.97784 2.44058
286 1 11.7222 3.55242 4.09841
287 1 12.8685 4.11689 3.13464
288 1 13.1268 3.61369 4.14253
289 1 0.126774 4.75096 1.68907
290 1 0.630971 5.51174 0.0523011
291 1 13.3949 5.32818 2.41329
292 1 0.614572 4.96106 0.895347
293 1 1.12829 4.90509 1.73572
294 1 1.75134 5.47876 0.0349673
295 1 1.33625 5.33133 2.48189
296 1 1.75263 4.9038 0.799252
297 1 2.25293 4.75005 1.54381
298 1 2.80138 5.15569 12.8705
299 1 2.40995 5.34133 2.59026
300 1 2.87299 4.70484 0.745112
301 1 3.3286 4.53313 1.64523
302 1 4.02347 5.10786 12.833
303 1 3.37225 5.13022 2.35372
304 1 3.89365 4.63681 0.811175
305 1 0.11859 5.9224 1.67972
306 1 0.605701 6.59284 0.0414548
307 1 0.0615863 6.40137 2.52848
308 1 0.695594 6.01182 0.76067
309 1 1.28807 6.01558 1.62983
310 1 1.77992 6.46615 12.9096
311 1 1.09328 6.55161 2.43248
312 1 1.847 6.06359 0.911391
313 1 2.37463 5.79714 1.59868
314 1 2.85762 6.37259 0.0373027
315 1 2.35637 6.44544 2.48646
316 1 2.93456 5.82122 0.683683
317 1 3.44378 5.77288 1.61461
318 1 3.99725 6.33803 0.114986
319 1 3.42268 6.20182 2.52231
320 1 4.01175 5.63484 0.790273
321 1 0.0256819 6.92731 1.65515
322 1 0.526687 7.79075 12.9497
323 1 0.069094 7.52926 2.43101
324 1 0.580001 7.08562 0.835768
325 1 1.21178 7.14123 1.75831
326 1 1.59099 7.67125 0.0843894
327 1 1.18391 7.6782 2.48239
328 1 1.65848 7.04414 0.854016
329 1 2.18054 6.9923 1.72956
330 1 2.66824 7.4387 0.103592
331 1 2.33254 7.60569 2.38957
332 1 2.75928 6.86267 0.989386
333 1 3.49216 6.78791 1.55029
334 1 3.86586 7.32139 0.0610204
335 1 3.42315 7.27039 2.42823
336 1 4.04603 6.87354 0.894079
337 1 0.0142493 8.02578 1.62457
338 1 0.682221 8.87851 12.8944
339 1 13.3962 8.66873 2.3686
340 1 0.528125 8.29549 0.767232
341 1 1.08711 8.19384 1.5281
342 1 1.73698 8.82164 0.111377
343 1 1.05034 8.77983 2.34154
344 1 1.76645 8.3081 0.805802
345 1 2.32724 8.06371 1.55747
346 1 2.79528 8.66188 0.0496435
347 1 2.17335 8.72555 2.431
348 1 2.89031 8.03784 0.814527
349 1 3.37875 7.92815 1.704
350 1 3.93513 8.35549 0.0421365
351 1 2.78287 9.79557 3.13523
352 1 3.95725 7.88164 0.983816
353 1 0.498617 5.32445 3.2225
354 1 0.653443 4.93203 4.11475
355 1 1.72809 5.50638 3.33602
356 1 1.7529 4.79821 4.05594
357 1 2.89483 5.32882 3.37308
358 1 2.83878 4.71535 4.05594
359 1 3.98703 5.04807 3.11746
360 1 3.96973 4.66219 4.0637
361 1 0.610889 6.47307 3.25059
362 1 0.409807 6.01086 4.06598
363 1 1.71659 6.5005 3.23353
364 1 1.55256 5.98189 4.19629
365 1 2.82355 6.48979 3.36484
366 1 2.6534 5.81543 4.09049
367 1 3.97903 6.18086 3.24711
368 1 4.05657 5.74389 4.01864
369 1 0.61748 7.64842 3.23348
370 1 0.599577 7.13717 4.0568
371 1 1.67399 7.63395 3.26866
372 1 1.59756 7.00427 4.08862
373 1 2.72861 7.62234 3.27877
374 1 2.7864 7.00365 4.0665
375 1 5.11024 7.21395 3.15947
376 1 3.42951 6.91892 4.82309
377 1 0.552507 8.70965 3.28546
378 1 0.552391 8.16614 4.17973
379 1 1.67945 8.81642 3.13467
380 1 1.66722 8.22805 4.00705
381 1 3.93423 8.6228 3.24809
382 1 2.76662 8.15011 4.04549
383 1 3.87101 7.37802 3.30846
384 1 3.8863 8.03274 3.91483
385 1 4.39237 4.42462 1.56015
386 1 5.02384 5.01537 0.103268
387 1 4.5946 5.01506 2.39831
388 1 4.93441 4.42008 0.792965
389 1 5.63938 4.79196 2.41
390 1 6.20088 4.23573 0.903653
391 1 6.24953 4.67212 3.446
392 1 5.56683 4.32514 1.50711
393 1 6.81932 4.29656 1.65064
394 1 6.69579 4.80176 12.125
395 1 6.56094 4.70249 2.52173
396 1 7.28857 4.00497 0.839817
397 1 7.88069 4.06642 1.7305
398 1 8.44106 4.72176 12.8649
399 1 7.80298 4.6443 2.39835
400 1 8.3328 4.16541 0.776187
401 1 4.44109 5.55481 1.60335
402 1 5.14523 6.16615 0.00455154
403 1 4.53737 6.20571 2.41217
404 1 5.12246 5.60586 0.780425
405 1 5.55298 5.35251 1.59938
406 1 6.10819 6.00455 12.8648
407 1 6.26319 5.94808 3.22628
408 1 6.33084 5.49396 0.767508
409 1 6.73137 5.25379 1.52391
410 1 7.43457 5.14912 0.748864
411 1 6.76905 5.75227 2.47027
412 1 7.24706 4.56135 12.8775
413 1 7.84546 5.26765 1.54679
414 1 8.43401 5.91441 12.8602
415 1 8.02166 5.78337 2.48294
416 1 8.44352 5.19924 0.825792
417 1 4.71095 6.71042 1.63309
418 1 5.17152 7.27348 0.0439834
419 1 4.44554 7.16669 2.45278
420 1 5.20405 6.67523 0.906955
421 1 5.67515 5.91726 2.43365
422 1 6.17743 7.07269 12.9064
423 1 5.7761 6.46928 1.65901
424 1 6.33575 6.49918 0.921131
425 1 6.97594 6.26913 1.73093
426 1 7.36452 7.03592 12.9304
427 1 6.88382 7.02066 2.36263
428 1 7.32008 6.47615 0.706231
429 1 7.90159 6.3781 1.57562
430 1 8.4716 6.29996 0.89042
431 1 8.02506 6.76012 2.64436
432 1 9.06905 6.41912 1.63702
433 1 4.6347 7.79461 1.82162
434 1 4.97239 8.46463 12.888
435 1 4.46351 8.41807 2.48352
436 1 4.98628 7.84292 0.755056
437 1 5.7722 7.15898 2.35754
438 1 6.10712 8.20922 0.0261402
439 1 5.51898 7.61379 1.5968
440 1 6.23311 7.56146 0.775379
441 1 6.60278 7.51965 1.60566
442 1 7.24276 8.05764 0.0472208
443 1 6.9194 8.0303 2.42682
444 1 7.29143 7.50585 0.906122
445 1 7.84917 7.37406 1.64595
446 1 8.40263 7.62979 0.827624
447 1 7.91451 8.51861 1.6541
448 1 8.47461 6.9271 0.151952
449 1 5.10118 5.18249 3.16309
450 1 5.14975 3.86899 3.33685
451 1 6.29296 5.41729 4.04203
452 1 6.25802 3.59809 3.25752
453 1 7.37981 4.66039 3.18475
454 1 7.41039 3.97343 4.16755
455 1 8.50965 5.09999 4.16109
456 1 8.34996 2.99909 4.02631
457 1 5.17776 5.53793 4.17026
458 1 4.53993 5.0231 5.57619
459 1 6.20775 6.49008 4.18899
460 1 6.23422 7.00059 3.22146
461 1 7.4161 5.78994 3.30128
462 1 8.54161 5.75649 6.57523
463 1 8.54022 5.63109 3.35568
464 1 8.01112 5.73287 5.73338
465 1 5.05011 7.80521 3.99353
466 1 5.14651 6.11816 3.23928
467 1 6.18888 8.09351 3.2134
468 1 5.07063 6.70511 3.96009
469 1 6.17653 7.50662 4.04338
470 1 7.24836 6.92037 3.23023
471 1 8.52095 6.87414 3.39554
472 1 8.48545 6.24121 4.07888
473 1 5.06387 8.24647 3.26894
474 1 4.57126 7.80428 4.79381
475 1 5.6344 7.70678 4.92598
476 1 6.76671 7.55656 4.81188
477 1 7.34979 8.02188 3.38741
478 1 6.87321 8.5284 4.84846
479 1 7.92141 7.95622 2.48589
480 1 8.44969 7.4585 4.1765
481 1 8.88653 4.22585 1.55968
482 1 9.56691 4.75155 0.164608
483 1 9.0718 4.76382 2.41923
484 1 10.1226 4.28115 1.63207
485 1 10.5813 3.27211 0.805603
486 1 10.0627 4.85223 12.1114
487 1 10.1929 4.93003 2.41737
488 1 10.6199 4.84629 0.059294
489 1 10.6857 4.42005 0.929784
490 1 12.3984 5.34155 12.2537
491 1 11.1734 5.05004 2.36013
492 1 11.8203 5.01145 0.00718684
493 1 11.8418 4.52648 0.775348
494 1 12.9737 5.2681 12.8832
495 1 12.2984 5.15108 2.32526
496 1 12.9502 4.78906 0.870324
497 1 9.08194 5.28883 1.69825
498 1 9.47017 5.92254 0.0524353
499 1 9.5584 5.89386 3.23935
500 1 9.46273 5.39509 0.838445
501 1 10.1126 5.43457 1.57555
502 1 10.6809 5.97762 0.0501377
503 1 10.1487 5.93005 2.48181
504 1 10.7475 5.45976 0.929214
505 1 11.3679 5.57637 1.66564
506 1 11.2952 6.0496 12.2322
507 1 11.2217 6.18919 2.4538
508 1 11.8119 5.63922 0.692451
509 1 12.4164 5.81868 1.52023
510 1 12.99 6.41751 0.107988
511 1 12.4317 6.2164 2.41705
512 1 12.9992 5.78273 0.848884
513 1 9.04051 5.88931 2.41019
514 1 9.54952 7.06436 0.106963
515 1 9.02878 6.9853 2.33658
516 1 9.65947 6.52323 0.836781
517 1 10.1921 6.51818 1.66274
518 1 10.6512 7.20347 0.0413967
519 1 10.1651 7.12624 2.37446
520 1 10.6677 6.59611 0.824926
521 1 11.3282 6.70287 1.72446
522 1 11.7733 7.30753 0.0701737
523 1 11.3549 7.41378 2.49791
524 1 12.9418 7.04586 0.733709
525 1 12.3757 6.92848 1.62169
526 1 12.3954 7.38548 12.1011
527 1 12.4108 7.36028 2.52339
528 1 12.9708 7.64287 12.8374
529 1 8.99442 7.51523 1.62134
530 1 10.0956 8.28837 12.0607
531 1 8.38386 8.01427 3.22481
532 1 9.56063 7.69567 0.922077
533 1 10.2019 7.66046 1.56065
534 1 10.6312 8.35024 12.9432
535 1 10.1492 8.22543 2.31615
536 1 10.8669 7.78616 0.827209
537 1 11.3189 7.97807 1.61988
538 1 11.9179 7.93843 0.754617
539 1 11.1398 8.39052 2.51942
540 1 11.7497 6.79069 0.94308
541 1 12.3915 8.00563 1.64318
542 1 12.8417 8.77904 12.8678
543 1 12.2876 8.63057 2.39523
544 1 12.9258 8.05694 0.839532
545 1 9.60308 4.78079 3.26292
546 1 9.54604 4.21608 3.96568
547 1 10.7271 4.84094 3.42908
548 1 10.6306 3.89106 3.14516
549 1 11.8762 4.9737 3.20263
550 1 11.8361 4.36944 3.90742
551 1 12.8935 5.2878 3.25958
552 1 12.8957 4.57468 4.04189
553 1 9.59549 6.61747 3.95623
554 1 9.60085 5.35276 4.0629
555 1 10.7257 6.03054 3.27069
556 1 10.6646 5.43575 4.04205
557 1 11.7623 6.10674 3.17816
558 1 11.7385 5.53673 3.94653
559 1 12.8417 6.37089 3.26315
560 1 12.7929 5.79547 3.99888
561 1 9.52295 8.12158 3.2473
562 1 9.62697 7.02801 3.14484
563 1 10.7119 7.13611 3.19199
564 1 10.6218 6.53767 4.14369
565 1 11.849 7.21133 3.33236
566 1 11.8099 6.67646 4.05105
567 1 13.0218 7.51863 3.24369
568 1 12.9525 6.96552 4.20295
569 1 9.03359 8.06446 2.3916
570 1 9.06687 7.43498 4.81712
571 1 10.5474 8.28622 3.35576
572 1 10.6329 7.5436 3.97546
573 1 11.8862 8.39386 3.1756
574 1 11.6369 7.88256 3.94107
575 1 12.9718 8.55528 3.17473
576 1 12.9048 8.01829 4.13993
577 1 13.282 9.22756 1.62241
578 1 0.550205 9.9726 0.00156916
579 1 13.332 9.84298 2.4135
580 1 0.488364 9.38733 0.715067
581 1 0.994829 9.3441 1.49851
582 1 1.52454 9.89791 0.0284923
583 1 1.01123 9.74099 2.42767
584 1 1.69357 9.38122 0.932968
585 1 2.21429 9.20023 1.68328
586 1 2.73778 9.74088 0.0683888
587 1 2.02443 9.99015 2.46927
588 1 2.78457 9.20407 0.882598
589 1 3.5147 9.05141 1.50782
590 1 3.77204 9.6055 12.8709
591 1 3.39153 8.60656 2.39931
592 1 3.94427 9.04279 0.682995
593 1 13.3375 10.4089 1.5778
594 1 0.397927 11.0573 0.0398878
595 1 13.4223 10.9622 2.43794
596 1 0.479997 10.5073 0.847207
597 1 1.05011 10.4636 1.64016
598 1 1.54698 10.9832 12.9019
599 1 1.07567 10.9971 2.37667
600 1 1.68908 10.4409 0.817678
601 1 2.17573 10.3683 1.60136
602 1 2.76878 10.9452 0.031518
603 1 2.15562 11.0133 2.5432
604 1 2.76751 10.3964 0.763553
605 1 3.24106 10.1645 1.60298
606 1 3.98803 10.727 12.9098
607 1 3.39621 10.7742 2.31907
608 1 3.8875 10.1146 0.807827
609 1 13.4251 11.5203 1.52202
610 1 0.357932 12.1805 12.8267
611 1 13.3635 12.0346 2.47305
612 1 0.559896 11.6015 0.797626
613 1 1.11985 11.6476 1.69353
614 1 2.24244 12.0906 12.1373
615 1 0.999523 12.1799 2.47706
616 1 1.63913 11.4642 0.74595
617 1 2.12933 11.4086 1.58785
618 1 2.53679 12.6252 0.873159
619 1 2.25833 12.0477 2.39568
620 1 2.71505 11.5599 0.792279
621 1 3.21868 11.4342 1.68033
622 1 3.91202 11.787 0.110261
623 1 3.27207 11.964 2.41372
624 1 3.81368 11.16 0.815173
625 1 13.106 12.5555 1.63421
626 1 0.490036 13.3143 0.0288174
627 1 13.3471 13.1644 2.44722
628 1 0.40957 12.694 0.762357
629 1 0.839844 12.6937 1.64387
630 1 1.51889 0.91164 0.0909682
631 1 1.00934 13.1973 2.41687
632 1 1.45375 12.6052 0.860927
633 1 2.03569 12.5311 1.63018
634 1 1.58401 13.2161 12.9387
635 1 2.08035 13.1283 2.3229
636 1 2.73571 13.183 0.0468203
637 1 3.25488 12.6307 1.49264
638 1 3.75008 13.0319 0.134299
639 1 3.28085 13.078 2.44893
640 1 3.86682 12.4422 0.856696
641 1 0.447021 9.74482 3.22813
642 1 0.535467 9.3178 4.13034
643 1 1.54577 10.0206 3.29109
644 1 1.66436 9.29354 3.95761
645 1 2.78305 8.65567 3.14618
646 1 2.79585 9.23217 4.03283
647 1 3.32613 9.65028 2.42136
648 1 3.90421 9.73863 3.23629
649 1 0.386769 10.9031 3.22738
650 1 0.650057 10.3983 4.03255
651 1 1.44109 11.1177 3.15123
652 1 1.75873 10.4806 4.01319
653 1 2.80582 11.0476 3.15105
654 1 2.69079 10.3388 3.81716
655 1 3.88732 10.795 3.19632
656 1 3.72361 10.1715 4.03255
657 1 0.434567 12.087 3.32447
658 1 0.518796 11.5018 4.04883
659 1 1.60151 12.1843 3.22504
660 1 1.67717 11.5934 3.99021
661 1 2.76923 12.1944 3.3613
662 1 2.74024 11.512 4.04917
663 1 3.80743 11.974 3.27201
664 1 3.89134 11.2741 4.0137
665 1 0.502295 13.2786 3.21524
666 1 0.602125 12.706 4.07333
667 1 1.54752 0.0424356 3.33028
668 1 1.67403 12.7566 3.90113
669 1 2.69813 13.173 3.19585
670 1 2.77206 12.5945 4.21616
671 1 3.82641 13.0199 3.29842
672 1 3.8311 12.376 4.09051
673 1 4.53865 8.94682 1.63746
674 1 5.08101 9.46462 0.00687962
675 1 4.49574 9.48391 2.42349
676 1 5.03171 8.83811 0.899923
677 1 5.70329 8.8457 1.66989
678 1 6.05306 10.5167 12.9074
679 1 5.53297 9.34183 2.40973
680 1 6.146 8.70505 0.794044
681 1 6.72867 8.60339 1.56086
682 1 7.3584 9.08237 12.9513
683 1 6.73088 9.11294 2.55871
684 1 7.35288 8.58694 0.815521
685 1 8.47111 8.66833 0.85224
686 1 8.42585 9.2043 12.9345
687 1 7.70502 9.67821 1.61777
688 1 8.55595 8.01786 0.0386085
689 1 4.48193 9.99939 1.67835
690 1 5.03298 10.5866 0.0464867
691 1 4.40449 10.6286 2.2957
692 1 5.00395 9.91378 0.802983
693 1 5.63479 9.98093 1.56138
694 1 5.48427 10.5984 12.0782
695 1 5.49113 10.4297 2.4736
696 1 6.20874 9.3588 12.911
697 1 6.09138 9.92269 0.735421
698 1 7.22987 10.2845 12.9444
699 1 6.73246 10.1385 2.52033
700 1 6.68752 9.75151 1.61843
701 1 7.20269 9.71502 0.796052
702 1 8.35198 10.2239 0.0348554
703 1 7.99475 10.1946 2.45256
704 1 8.31426 9.72766 0.845714
705 1 4.39835 11.221 1.52565
706 1 5.00105 11.693 0.105898
707 1 4.47572 11.6049 2.46588
708 1 5.09051 11.1479 0.825582
709 1 5.53986 11.0197 1.56651
710 1 6.18113 11.6861 0.125223
711 1 5.5798 11.5169 2.43257
712 1 6.24726 11.0608 0.847958
713 1 6.67197 10.778 1.6211
714 1 7.20755 11.4625 12.9359
715 1 6.70178 11.2809 2.27945
716 1 7.31255 10.7581 0.820349
717 1 7.85085 10.7484 1.77055
718 1 8.17851 11.4637 12.9514
719 1 7.78503 11.4041 2.30272
720 1 8.31616 10.8554 0.786866
721 1 4.3323 12.2004 1.61783
722 1 4.97357 12.9315 12.9288
723 1 4.28929 12.7313 2.45845
724 1 4.98108 12.3955 0.738191
725 1 5.35023 12.1788 1.64793
726 1 6.00855 12.7082 12.9376
727 1 5.44666 12.6812 2.43202
728 1 6.12871 12.219 0.909901
729 1 6.42769 12.0412 1.68151
730 1 7.16162 12.5219 0.0503479
731 1 6.62682 12.4597 2.50973
732 1 7.25469 11.9465 0.83364
733 1 7.74734 11.9247 1.49037
734 1 8.30869 12.5879 12.8343
735 1 7.76786 12.4284 2.45685
736 1 8.47456 11.9182 0.7715
737 1 5.10212 9.3095 3.26634
738 1 4.90836 8.9173 4.27457
739 1 6.06993 9.37006 3.30052
740 1 6.11795 8.73163 3.94044
741 1 7.76425 9.16994 2.41346
742 1 7.26531 8.66482 3.99504
743 1 8.42964 9.10121 3.27085
744 1 9.04389 8.61748 4.98485
745 1 4.93383 10.5256 3.27082
746 1 5.05285 9.98889 3.99471
747 1 6.19754 10.3861 3.17789
748 1 6.20615 9.85427 4.15758
749 1 7.34561 10.3702 3.15643
750 1 7.28976 9.74203 4.03766
751 1 8.45658 10.3259 3.33185
752 1 8.4183 9.60979 4.00643
753 1 4.97436 11.6551 3.19383
754 1 5.05388 11.2214 4.02454
755 1 6.12457 11.4459 3.29408
756 1 6.00666 10.822 3.96456
757 1 7.23295 11.3688 3.14885
758 1 7.19549 10.7986 4.0669
759 1 8.36638 11.4544 3.25637
760 1 8.3314 10.7541 4.08405
761 1 4.93445 12.7867 3.19923
762 1 4.9835 12.3352 4.00706
763 1 6.10064 12.606 3.20913
764 1 6.06789 12.0619 4.01208
765 1 7.29158 12.5259 3.26954
766 1 7.18968 11.8953 3.95523
767 1 8.37883 12.3808 3.2798
768 1 8.34011 11.8977 4.20991
769 1 9.04279 8.72243 1.70725
770 1 9.58385 8.69085 0.664353
771 1 8.91542 9.24861 2.48399
772 1 9.51329 9.29906 12.9136
773 1 10.0719 8.86317 1.51532
774 1 10.1872 9.23453 12.1636
775 1 10.0316 9.36685 2.36627
776 1 10.6573 8.95015 0.777573
777 1 11.174 8.985 1.62103
778 1 11.7024 9.69805 12.9205
779 1 11.1357 9.42586 2.44518
780 1 11.7976 9.04156 0.821734
781 1 12.2995 9.14121 1.56717
782 1 12.8047 9.85974 12.9284
783 1 12.2985 9.79553 2.44571
784 1 12.9573 9.19761 0.726351
785 1 8.92022 9.79398 1.52413
786 1 9.51485 10.3878 12.8793
787 1 9.1166 10.2669 2.5446
788 1 9.57478 9.77633 0.76032
789 1 10.0901 10.1222 1.62905
790 1 10.6022 10.089 0.781579
791 1 10.2122 10.4949 2.38733
792 1 10.6533 9.52 0.0396914
793 1 11.1862 10.0351 1.67946
794 1 11.8398 10.7457 12.8622
795 1 11.3859 10.617 2.39618
796 1 11.6463 10.1626 0.854804
797 1 12.2852 10.2261 1.48772
798 1 12.8394 10.9184 12.9341
799 1 12.4866 10.8357 2.32146
800 1 12.765 10.3783 0.76069
801 1 8.90361 10.8499 1.53356
802 1 9.45989 11.5297 12.9474
803 1 8.97906 11.3376 2.33566
804 1 9.54042 10.8637 0.788321
805 1 9.98895 11.172 1.65187
806 1 10.5111 11.6347 12.9399
807 1 9.95758 11.5974 2.58486
808 1 10.6155 11.1579 0.822721
809 1 11.1332 11.28 1.73732
810 1 11.7321 11.9254 12.7708
811 1 11.1886 11.715 2.61264
812 1 11.6087 11.3078 0.813145
813 1 12.2336 11.3425 1.60087
814 1 12.9095 12.0473 0.117803
815 1 12.3877 11.9345 2.49356
816 1 12.8 11.4847 0.853346
817 1 8.80554 11.9725 1.70597
818 1 9.4004 12.5926 0.069204
819 1 8.84776 12.5368 2.37347
820 1 9.50797 11.9925 0.785935
821 1 9.94919 12.2178 1.57472
822 1 10.6377 12.6898 12.9458
823 1 10.0465 12.5985 2.40814
824 1 10.7192 12.2342 0.786269
825 1 11.0079 12.3506 1.84819
826 1 13.4206 13.2059 12.1983
827 1 11.113 12.9372 2.60115
828 1 11.6644 12.3886 0.913726
829 1 12.0055 12.4964 1.81553
830 1 11.7452 12.949 0.150317
831 1 12.3265 13.1322 2.5122
832 1 12.7007 12.6574 0.876172
833 1 9.59123 9.2387 3.12683
834 1 10.1211 8.62736 4.80834
835 1 10.5918 9.41623 3.19699
836 1 10.7332 8.92654 4.05523
837 1 11.6386 9.57603 3.25945
838 1 11.814 8.96848 3.92181
839 1 12.8085 9.6882 3.15857
840 1 12.7827 9.04434 3.9663
841 1 9.58473 10.3149 3.37047
842 1 9.56887 9.7245 4.13197
843 1 10.6126 10.5043 3.20859
844 1 10.5807 10.042 4.24304
845 1 11.6267 10.6668 3.27381
846 1 11.6791 10.1248 4.01471
847 1 12.7134 10.8666 3.36343
848 1 12.8775 10.2149 3.94188
849 1 9.42655 11.5129 3.25225
850 1 9.38896 10.975 4.06206
851 1 10.596 11.6501 3.34896
852 1 10.5808 11.0583 4.13798
853 1 11.7968 11.7318 3.22102
854 1 11.6528 11.3074 4.16579
855 1 12.7613 12.1534 3.3608
856 1 13.0024 11.4035 4.04497
857 1 9.46098 12.6036 3.20142
858 1 9.58029 12.1194 4.00161
859 1 10.6018 12.8081 3.22753
860 1 10.6852 12.2234 4.04881
861 1 11.6994 12.9805 3.34388
862 1 11.7017 12.3538 4.05622
863 1 12.8056 13.0934 3.32334
864 1 12.8033 12.55 4.1699
865 1 13.3782 0.359527 5.01112
866 1 0.0154742 1.01922 5.63601
867 1 1.05294 0.235588 4.81641
868 1 1.15734 0.857561 5.60379
869 1 2.29698 0.456636 4.87815
870 1 2.24885 0.848686 5.67115
871 1 3.33304 0.090518 4.87261
872 1 3.37395 0.528964 5.77509
873 1 0.0660672 1.49876 4.76336
874 1 0.019846 1.9608 5.771
875 1 1.13673 1.52744 5.11454
876 1 1.16161 2.17588 5.70256
877 1 2.31227 1.54258 4.90297
878 1 2.34548 2.13589 5.74641
879 1 3.43049 1.21469 4.92804
880 1 3.31197 1.74294 5.65918
881 1 0.0217407 2.54907 4.83676
882 1 13.4372 3.00668 5.59306
883 1 1.13846 2.7618 4.96075
884 1 1.23068 3.2603 5.7556
885 1 2.29323 2.67847 4.93831
886 1 2.30382 3.20312 5.82871
887 1 3.40764 2.91485 5.71253
888 1 4.12996 2.90753 6.51782
889 1 0.140797 3.67982 5.00336
890 1 13.3513 4.21139 5.63211
891 1 1.02983 3.80186 4.91275
892 1 1.16163 4.2717 5.78774
893 1 2.2175 3.62876 4.72453
894 1 2.36133 4.16149 5.63431
895 1 3.48202 3.46487 4.92706
896 1 3.28345 4.09496 5.55687
897 1 13.3451 0.334762 7.98398
898 1 0.480971 0.918476 6.46696
899 1 0.55624 0.541998 7.40525
900 1 1.16075 0.26442 8.22035
901 1 1.58314 1.00896 6.56986
902 1 1.64308 0.395107 7.3259
903 1 2.33658 0.358981 8.10545
904 1 2.72242 0.971683 6.39768
905 1 2.72607 0.310617 7.12329
906 1 3.33923 0.234533 8.07342
907 1 3.93732 0.694434 6.42727
908 1 3.80189 0.112838 7.287
909 1 13.354 1.48276 8.20176
910 1 0.598029 2.08781 6.47527
911 1 0.47845 1.56832 7.25097
912 1 1.13738 1.63137 8.18202
913 1 1.83425 2.07526 6.46468
914 1 1.67924 1.50155 7.38812
915 1 2.33823 1.50839 8.05228
916 1 2.98581 2.04422 6.59779
917 1 2.81667 1.44287 7.2576
918 1 3.2281 0.669267 8.89479
919 1 4.02062 2.24546 7.27514
920 1 3.91929 1.15635 7.26675
921 1 0.071699 2.39158 8.197
922 1 0.567918 3.17879 6.38604
923 1 0.628309 2.49239 7.25813
924 1 1.062 2.7217 8.21168
925 1 1.73821 3.16925 6.58076
926 1 1.66827 2.56413 7.298
927 1 2.23558 2.56859 8.1602
928 1 2.93705 3.16422 6.50365
929 1 2.85236 2.61547 7.31098
930 1 3.30196 1.73846 8.92842
931 1 3.47303 3.63354 8.05293
932 1 3.38109 2.38119 8.10311
933 1 0.06053 3.61707 8.32714
934 1 0.534767 4.23123 6.44933
935 1 0.48685 3.56455 7.27036
936 1 1.17117 3.73876 8.09193
937 1 1.77495 4.42747 6.516
938 1 1.58868 3.79454 7.15541
939 1 2.11106 3.68708 8.12574
940 1 2.82353 4.26584 6.60047
941 1 2.71669 3.59057 7.46452
942 1 3.24779 4.15995 8.91019
943 1 4.45557 3.89396 5.74283
944 1 4.01835 1.78669 6.39504
945 1 4.35036 0.0188058 4.8244
946 1 4.52579 0.455023 5.69639
947 1 5.41006 13.3195 4.8688
948 1 5.64716 0.407179 5.65153
949 1 6.65627 13.1065 4.84497
950 1 6.71241 0.228107 5.52408
951 1 7.76111 13.0647 4.78308
952 1 7.83867 0.106618 5.5516
953 1 3.92336 1.2296 3.99779
954 1 3.93103 3.45076 4.07041
955 1 5.53645 0.969067 4.76174
956 1 5.70485 1.46905 5.7207
957 1 6.68341 0.792186 4.77491
958 1 6.77101 2.48822 5.68683
959 1 7.88713 0.885572 4.90615
960 1 7.98699 1.42536 5.6777
961 1 4.55151 1.6025 5.54179
962 1 5.01529 3.36436 7.17062
963 1 5.72456 2.00197 4.87498
964 1 5.18991 2.72013 6.5467
965 1 6.81172 1.84927 4.79499
966 1 6.735 3.69254 5.66397
967 1 7.80649 1.88978 4.85283
968 1 7.80387 2.49012 5.74768
969 1 5.68086 3.29328 4.94283
970 1 3.78407 3.99837 6.46151
971 1 5.08913 4.56902 3.97988
972 1 5.70648 4.3821 4.88385
973 1 6.73755 2.9933 4.87657
974 1 6.85374 4.162 4.90544
975 1 7.90184 3.54677 5.71722
976 1 8.45895 3.63267 6.41198
977 1 4.42406 13.2976 8.04447
978 1 5.09227 0.641999 6.4268
979 1 4.9837 0.0902694 7.26667
980 1 5.50729 13.3284 8.06581
981 1 6.11034 0.309718 6.51449
982 1 6.09309 13.2653 7.327
983 1 6.58166 12.6621 8.79144
984 1 7.15071 0.195263 6.4965
985 1 6.78669 13.2759 7.97861
986 1 7.94097 13.0385 8.14509
987 1 8.24336 0.258176 6.42027
988 1 8.43195 13.1646 7.17341
989 1 4.55381 1.11688 8.15822
990 1 5.1075 1.68256 6.36641
991 1 5.02474 1.12383 7.2911
992 1 5.65287 0.995613 8.0863
993 1 6.2578 1.51169 6.41351