data.lammps (converted from cfg to data.lammps)
    
2298  atoms
1  atom types
0.0   13.4375  xlo xhi
0.0   13.4375  ylo yhi
0.0   12.952  zlo zhi
0.0  0.0 0.0 xy xz yz
    
    
    
Atoms
  
1 1 0.0735373 13.1639 1.67305
2 1 0.607011 0.267429 12.9279
3 1 0.0547242 0.674309 1.51488
4 1 1.09183 13.3415 1.62766
5 1 1.71992 13.3854 0.842519
6 1 1.14123 13.1567 11.3272
7 1 1.10046 0.25823 2.46471
8 1 2.16469 1.10516 1.55653
9 1 2.28669 13.4299 1.48146
10 1 2.82975 0.0761228 0.689474
11 1 2.15926 0.475305 2.45747
12 1 2.7059 0.7203 12.9299
13 1 3.27227 12.971 2.50111
14 1 3.84092 0.718831 12.8582
15 1 3.12957 0.520072 2.2344
16 1 3.43284 0.00367502 1.48932
17 1 12.9235 0.683176 0.839418
18 1 1.06456 1.96947 11.3362
19 1 0.0156348 1.35969 2.24753
20 1 0.692618 0.773344 0.709492
21 1 1.17136 0.952626 1.67949
22 1 0.465069 1.36944 0.0194071
23 1 1.1342 2.08111 1.56261
24 1 1.60692 1.46455 12.9354
25 1 1.67066 1.03796 0.756954
26 1 2.2009 1.71125 12.1528
27 1 2.09832 1.558 2.47847
28 1 2.6802 1.65679 3.1913
29 1 3.46704 1.16168 1.54862
30 1 3.84657 1.26876 0.766393
31 1 4.95645 1.98121 3.14696
32 1 5.52855 0.275547 1.64984
33 1 12.9244 1.72648 0.740752
34 1 0.606393 2.38169 0.0712527
35 1 0.0857521 2.35412 2.51547
36 1 13.2882 1.96736 1.60471
37 1 2.23979 2.11326 1.64233
38 1 1.67507 2.61857 12.9241
39 1 1.02324 2.52046 2.51734
40 1 2.81302 2.29999 0.669166
41 1 2.81459 1.16923 0.903564
42 1 2.92829 2.88818 12.7977
43 1 2.09074 2.7631 2.35057
44 1 3.24349 2.36328 1.67059
45 1 3.20804 1.7101 2.31837
46 1 3.74844 2.30649 0.846247
47 1 2.84747 2.74445 3.21286
48 1 4.02465 1.81096 12.8421
49 1 13.4112 2.97239 1.73939
50 1 0.423909 3.07811 0.83911
51 1 13.3546 3.55516 2.49207
52 1 0.917582 3.20026 1.58786
53 1 0.619079 1.9114 0.981232
54 1 1.67176 3.85723 0.0725729
55 1 1.2626 3.79319 2.45104
56 1 1.58176 3.20519 0.848394
57 1 2.18023 3.27376 1.58887
58 1 2.69563 3.91167 0.0116579
59 1 2.28354 3.96574 2.30568
60 1 2.80171 3.3502 0.809666
61 1 3.41764 3.46873 1.58158
62 1 4.51657 4.13157 12.2142
63 1 3.29475 3.99892 2.32213
64 1 3.85643 3.50551 0.774811
65 1 13.2742 0.235569 2.56013
66 1 0.591124 0.330317 3.18698
67 1 1.67579 0.345111 3.27569
68 1 1.72515 13.2447 4.01683
69 1 2.75246 0.585831 3.33884
70 1 2.83366 13.4262 4.09011
71 1 3.77309 1.90767 3.2127
72 1 3.69465 0.714575 3.07373
73 1 0.438443 1.33922 3.25014
74 1 0.562822 0.765767 4.11125
75 1 1.02062 1.48586 2.48276
76 1 1.6955 0.933663 3.99788
77 1 1.45535 1.5611 3.2825
78 1 2.23302 1.01213 5.08914
79 1 3.91538 2.40772 4.1194
80 1 4.37616 1.94351 2.38769
81 1 0.641885 2.51053 3.49134
82 1 0.543492 1.82516 4.11038
83 1 1.75062 2.67715 3.28186
84 1 1.71897 2.09993 4.16876
85 1 2.65752 2.13338 4.13213
86 1 3.24677 2.26727 4.76565
87 1 3.20715 2.93764 2.39464
88 1 4.60627 2.51551 4.77812
89 1 0.629214 3.66242 3.00168
90 1 0.437818 3.19041 3.91292
91 1 1.86589 3.67682 3.23104
92 1 1.67302 3.08237 4.15994
93 1 2.8678 3.84073 3.28582
94 1 2.80857 3.27696 4.08084
95 1 4.38261 4.26662 2.48327
96 1 3.91612 2.81827 3.27292
97 1 4.41519 0.178228 1.62035
98 1 4.99471 0.3174 0.82174
99 1 4.45626 1.2029 1.67633
100 1 5.51284 1.47765 1.62706
101 1 5.63111 0.85636 2.36028
102 1 6.22082 1.10512 0.00241621
103 1 5.00873 13.0851 3.2412
104 1 6.70358 0.297702 1.65742
105 1 6.73324 1.39514 1.5757
106 1 7.34973 1.01491 12.9397
107 1 6.66164 0.894338 2.39335
108 1 7.88718 0.30426 1.54433
109 1 7.24938 0.435288 0.753891
110 1 7.83891 1.33413 11.4434
111 1 7.80678 0.809753 2.51672
112 1 8.449 0.0574618 0.75377
113 1 5.03096 0.760436 0.0452153
114 1 4.53493 1.96514 12.038
115 1 3.94888 1.34099 3.98887
116 1 4.88493 1.49383 0.814002
117 1 6.19445 2.14214 0.0414135
118 1 6.13368 2.68258 0.760422
119 1 5.5486 2.02404 2.39756
120 1 5.06338 1.92893 12.9092
121 1 6.11889 1.522 0.894086
122 1 6.6395 2.0194 12.0843
123 1 6.65448 2.09343 2.33725
124 1 7.31818 1.49541 0.829249
125 1 7.9197 1.26705 1.56151
126 1 8.4163 1.91746 12.8784
127 1 7.9142 1.90087 2.34773
128 1 7.76884 1.99294 12.1595
129 1 4.33734 2.50957 1.6029
130 1 5.13092 2.9855 12.9218
131 1 4.34934 3.11911 2.3748
132 1 4.99948 2.46234 0.840038
133 1 5.49541 2.52083 1.66295
134 1 6.14068 3.2447 12.7706
135 1 5.55256 3.14575 2.41648
136 1 6.62557 2.56725 1.59487
137 1 7.89059 2.99553 2.34188
138 1 7.86059 3.11415 12.3
139 1 6.70593 3.29352 2.41892
140 1 7.29319 2.06983 12.9454
141 1 7.20955 2.63931 0.829717
142 1 8.45744 2.82894 0.142345
143 1 7.80125 3.57266 1.58744
144 1 7.64267 2.44911 1.63067
145 1 4.54795 3.68583 1.61241
146 1 5.17388 4.16427 12.9188
147 1 4.41875 4.73172 1.56423
148 1 5.01496 3.52966 0.842774
149 1 5.67976 3.64972 1.58275
150 1 6.24787 4.35954 12.8744
151 1 5.57817 4.37826 2.41855
152 1 6.21054 3.71101 0.751664
153 1 7.36461 4.44699 0.0625808
154 1 6.86117 4.32335 12.1621
155 1 6.65799 3.73362 1.63345
156 1 7.26574 3.77246 0.72732
157 1 7.78245 4.21712 2.45293
158 1 8.41038 4.00299 12.9422
159 1 8.28739 4.09376 3.21947
160 1 8.41413 3.50278 0.872304
161 1 5.08101 0.905209 3.22424
162 1 4.39351 13.2437 2.47921
163 1 6.17527 1.02824 3.31233
164 1 6.03985 0.448482 4.02701
165 1 7.18694 1.01025 3.22856
166 1 7.18165 0.380973 4.05583
167 1 8.47646 0.726766 3.16325
168 1 8.3907 0.26003 4.11279
169 1 4.87738 1.52939 4.01608
170 1 4.46911 1.36694 4.98372
171 1 6.17647 2.07022 3.16271
172 1 6.03294 1.58272 4.06486
173 1 7.26459 1.97148 3.16669
174 1 7.17628 1.49315 4.07019
175 1 8.33438 1.91886 3.34219
176 1 8.15655 1.27784 4.07746
177 1 4.94754 3.1085 3.13489
178 1 5.08436 2.60338 3.85584
179 1 6.18763 3.15453 3.14613
180 1 6.12587 2.63022 3.97259
181 1 7.38842 2.96652 3.09997
182 1 7.08813 2.54931 4.16632
183 1 8.43974 2.96645 3.1944
184 1 8.35057 2.48603 4.05565
185 1 5.1233 3.69327 4.09471
186 1 4.61393 3.59973 4.88004
187 1 6.67351 4.45352 2.42112
188 1 6.16608 3.70902 4.00572
189 1 7.20546 4.17952 3.30538
190 1 7.36048 3.57506 3.91362
191 1 8.39344 5.174 3.22966
192 1 7.77796 3.61817 4.82345
193 1 8.86448 0.10539 1.77948
194 1 9.05064 0.671551 12.2655
195 1 8.99741 0.587066 2.51437
196 1 9.46216 13.3918 0.878194
197 1 9.87878 0.00696029 1.66243
198 1 10.6455 0.454686 0.0153255
199 1 10.1705 0.515707 2.29588
200 1 10.5399 0.00196282 0.874316
201 1 11.1506 13.1738 1.48544
202 1 11.1885 0.284123 12.1868
203 1 11.2235 0.276495 2.44838
204 1 11.92 13.1051 0.821601
205 1 12.3485 13.0933 1.69401
206 1 11.7213 0.314593 0.0864132
207 1 12.2448 0.17713 2.41848
208 1 12.9473 13.0588 0.796453
209 1 8.48296 1.32208 0.650113
210 1 10.1223 2.20508 1.68459
211 1 8.95251 1.20941 1.54476
212 1 9.53338 0.582802 0.0812757
213 1 9.60045 1.10037 0.834285
214 1 10.1065 2.7961 12.1634
215 1 9.96865 1.60098 2.50203
216 1 10.7376 1.11721 0.802378
217 1 11.2062 0.889968 1.53749
218 1 11.5934 1.93532 0.895486
219 1 11.2412 1.36692 2.45536
220 1 11.9017 0.733299 0.806278
221 1 12.2176 0.857253 1.64892
222 1 12.3268 0.114605 12.1681
223 1 12.44 1.29943 2.42055
224 1 0.505547 13.0991 0.635474
225 1 8.98236 2.35074 1.57886
226 1 8.97958 2.971 12.0995
227 1 9.58193 2.8049 3.21871
228 1 10.0426 2.73049 2.42345
229 1 10.0693 1.16095 1.65325
230 1 10.1652 2.19695 11.4626
231 1 10.0045 3.36535 1.51599
232 1 10.6908 2.19472 0.78598
233 1 11.2368 2.0151 1.84311
234 1 12.3272 2.55403 12.0881
235 1 11.1167 2.69982 2.39954
236 1 11.8531 2.48797 0.0770649
237 1 12.3335 1.89587 1.4584
238 1 11.735 3.68149 12.9037
239 1 12.3152 2.33499 2.57516
240 1 12.8673 1.16214 12.8533
241 1 8.95963 2.88326 2.38256
242 1 9.52291 3.89608 12.8498
243 1 8.88693 3.6009 1.73426
244 1 9.48541 2.79397 12.8585
245 1 10.6415 3.21327 0.826028
246 1 10.5687 3.81927 0.0757562
247 1 10.0916 4.42291 1.50169
248 1 10.1462 3.3216 11.4324
249 1 11.0323 3.78069 2.44399
250 1 12.4086 3.49535 12.1379
251 1 11.1284 4.32248 1.67401
252 1 11.8396 4.23378 0.749504
253 1 12.3036 2.91606 1.71276
254 1 12.8061 3.00112 0.793769
255 1 12.2894 3.53109 2.41074
256 1 12.8738 2.41589 0.0937804
257 1 9.65773 0.567347 3.19916
258 1 9.44879 13.4033 3.97287
259 1 10.744 0.389649 3.34298
260 1 10.6744 13.254 4.20009
261 1 11.7854 0.172886 3.39057
262 1 11.7519 13.0904 4.18769
263 1 12.7982 0.08314 3.34593
264 1 13.0163 13.1155 4.12494
265 1 8.97636 1.74142 2.37497
266 1 9.49075 1.10862 4.04079
267 1 10.5131 1.4805 3.12796
268 1 10.6741 0.977211 4.00646
269 1 11.8059 1.37171 3.08996
270 1 11.8096 0.789504 4.12508
271 1 12.8628 1.04838 3.32624
272 1 12.9204 0.787842 4.25516
273 1 9.63381 2.24745 4.09746
274 1 9.36732 1.77582 3.32313
275 1 10.6775 2.61091 3.17724
276 1 10.6829 1.97443 4.02423
277 1 11.6451 2.42085 3.22187
278 1 11.723 1.8196 3.96676
279 1 12.945 2.35359 3.20885
280 1 12.7095 1.85803 4.01548
281 1 9.96576 3.75171 2.37976
282 1 9.58113 3.93559 3.24582
283 1 12.8909 3.40145 3.25844
284 1 10.5568 3.1707 4.06557
285 1 10.712 3.72727 3.3443
286 1 11.831 2.99053 4.03821
287 1 11.7637 3.51141 3.14247
288 1 12.8118 2.80625 4.20392
289 1 0.225805 4.10861 1.60247
290 1 0.72804 4.99006 0.165269
291 1 0.0158046 4.64305 2.53275
292 1 0.495199 4.26987 0.69073
293 1 1.16864 4.32764 1.67674
294 1 1.74067 4.96724 0.114052
295 1 1.24254 4.87566 2.49908
296 1 1.69209 4.27736 0.891533
297 1 2.35756 4.46386 1.49024
298 1 2.87732 4.92294 12.8183
299 1 2.30597 4.98585 2.46214
300 1 2.83545 4.48716 0.730885
301 1 3.4726 4.61788 1.47728
302 1 4.00444 5.34584 12.9222
303 1 3.45084 5.1038 2.41109
304 1 3.97172 4.03919 12.8846
305 1 0.0563175 5.19001 1.74405
306 1 0.503093 5.92638 12.8254
307 1 0.0451966 5.83261 2.3888
308 1 0.654242 5.32026 0.921839
309 1 1.27991 5.35855 1.60255
310 1 1.57794 6.07491 12.9026
311 1 1.12613 5.99083 2.38046
312 1 1.79293 5.61722 0.742334
313 1 2.35339 5.54661 1.5761
314 1 2.73327 6.25587 0.0548894
315 1 2.26094 6.07362 2.4549
316 1 2.89054 5.60908 0.637113
317 1 3.33625 5.71956 1.58738
318 1 3.86313 6.33719 0.168999
319 1 3.41451 6.2089 2.45607
320 1 4.02305 5.74194 0.893737
321 1 0.000380804 6.48275 1.56294
322 1 0.591504 6.88017 0.0173521
323 1 13.3008 6.96298 2.40692
324 1 0.57027 6.26761 0.850895
325 1 1.21122 6.544 1.60518
326 1 1.61625 7.32098 12.8063
327 1 1.13445 7.08858 2.43381
328 1 1.65539 6.68719 0.709735
329 1 2.26231 6.60114 1.55121
330 1 2.8661 7.40332 12.9454
331 1 2.318 7.11192 2.39827
332 1 2.66001 6.85769 0.755573
333 1 3.35577 6.73461 1.64742
334 1 3.91762 7.39126 0.136664
335 1 3.49856 7.2181 2.54849
336 1 3.862 6.8936 0.95072
337 1 0.120267 7.54168 1.47872
338 1 0.51864 8.07669 12.9223
339 1 0.0479075 7.97513 2.43479
340 1 0.719751 7.42188 0.736512
341 1 1.20217 7.67421 1.65256
342 1 1.64501 8.30705 12.9167
343 1 1.32544 8.14862 2.41485
344 1 1.73306 7.71307 0.837857
345 1 2.38052 7.85754 1.68601
346 1 2.76315 8.40787 12.8892
347 1 2.44759 8.34998 2.41442
348 1 2.8188 8.05172 0.796253
349 1 3.46834 7.88164 1.77503
350 1 4.02282 8.56115 0.0413614
351 1 2.89041 9.51767 3.39652
352 1 3.79998 8.01973 0.788374
353 1 0.680212 4.90109 3.17678
354 1 0.539642 4.2538 3.93465
355 1 1.94758 4.95918 3.31639
356 1 1.57505 4.19413 3.89165
357 1 3.12664 4.96916 3.22175
358 1 2.77202 4.42803 4.12288
359 1 3.88431 3.97034 3.28723
360 1 3.992 4.83491 3.72088
361 1 0.606592 5.9107 3.25589
362 1 0.472378 5.34764 4.15873
363 1 1.80505 6.10444 3.28661
364 1 1.59002 5.50194 3.95747
365 1 2.81543 6.01461 3.21816
366 1 2.77839 5.58764 4.05488
367 1 3.90034 6.23195 3.41286
368 1 3.83909 5.8349 4.11357
369 1 0.595236 7.05123 3.21861
370 1 0.58016 6.51955 3.96965
371 1 1.71047 7.13793 3.2574
372 1 1.65963 6.71067 4.05482
373 1 2.80967 7.31027 3.1857
374 1 2.77327 6.76539 3.97086
375 1 5.08306 7.54208 3.31946
376 1 3.41912 6.84076 4.9033
377 1 0.545764 8.17517 3.09292
378 1 0.601066 7.58801 4.04383
379 1 1.70181 8.28931 3.24718
380 1 1.72128 7.77523 3.96514
381 1 3.88696 8.70937 3.24516
382 1 2.83671 7.99554 4.15079
383 1 3.97808 7.47945 3.30968
384 1 3.88392 8.12609 4.00969
385 1 3.91663 4.66017 0.586005
386 1 5.06156 5.394 12.9344
387 1 4.37499 5.28315 2.5158
388 1 5.00296 4.63434 0.680404
389 1 5.42816 5.43434 2.32575
390 1 6.02649 4.81963 0.841037
391 1 5.8928 5.4337 3.14934
392 1 5.52301 4.84711 1.57438
393 1 6.64427 4.81499 1.56047
394 1 6.71716 5.45115 12.0307
395 1 6.67558 5.43972 2.45822
396 1 7.28691 4.92994 0.878342
397 1 7.85525 4.68851 1.61666
398 1 8.36228 5.28196 12.9032
399 1 7.84233 5.33295 2.47192
400 1 8.39263 4.69938 0.778748
401 1 4.50311 5.81075 1.66805
402 1 4.88801 6.45718 0.0743234
403 1 4.48697 6.43584 2.48537
404 1 5.17149 5.93153 0.886757
405 1 5.69872 5.90137 1.69836
406 1 6.17317 6.61187 12.9415
407 1 6.27559 6.57723 3.23768
408 1 6.2277 6.06957 0.792476
409 1 6.71648 5.9773 1.65361
410 1 7.4351 5.95295 0.837671
411 1 6.86256 6.57349 2.5402
412 1 7.26587 5.57533 12.8781
413 1 7.81141 5.89373 1.70463
414 1 8.40126 6.51218 0.0127335
415 1 7.89467 6.55628 2.22225
416 1 8.48558 5.79936 0.737084
417 1 4.59636 6.9128 1.67879
418 1 4.90779 7.71331 0.170051
419 1 4.65994 7.59239 2.47059
420 1 5.10692 7.03115 0.890122
421 1 5.68649 6.47782 2.49743
422 1 6.10826 7.64224 12.8685
423 1 5.66708 7.05767 1.6183
424 1 6.29313 7.13592 0.809979
425 1 6.67947 6.9957 1.72661
426 1 7.40006 7.55307 0.0156162
427 1 6.80161 7.74566 2.39708
428 1 7.19729 6.91632 0.82501
429 1 7.82366 7.19847 1.58491
430 1 8.34932 6.94619 0.800935
431 1 7.9876 7.59688 2.64709
432 1 8.93875 6.81895 1.56871
433 1 4.48455 7.96548 1.54901
434 1 5.10387 8.74011 0.0520183
435 1 4.52849 8.69655 2.454
436 1 5.10034 8.182 0.960228
437 1 5.73953 7.60759 2.48642
438 1 6.11765 8.73841 0.0473204
439 1 5.63002 8.1673 1.64252
440 1 6.26884 8.19395 0.775418
441 1 6.76269 8.24813 1.61037
442 1 7.32111 8.79691 0.0254932
443 1 6.69936 8.74867 2.50981
444 1 7.28065 8.11651 0.63163
445 1 7.7061 8.1134 1.52841
446 1 8.43297 8.06405 0.817511
447 1 7.82431 9.1979 1.60798
448 1 8.43874 7.51421 0.00986462
449 1 4.86958 5.23415 3.34019
450 1 5.01729 4.07756 3.14572
451 1 6.13365 5.96638 3.99288
452 1 6.12977 4.29012 3.27092
453 1 7.19503 5.34026 3.21914
454 1 7.27041 4.82893 4.08103
455 1 8.40786 5.77733 4.07838
456 1 8.4016 3.71246 4.07541
457 1 5.12087 5.93122 4.00601
458 1 4.52321 5.41725 5.68603
459 1 6.16401 7.01647 4.18027
460 1 6.25788 7.6361 3.23976
461 1 7.532 6.44746 3.21046
462 1 8.37123 6.38851 6.42932
463 1 8.53137 6.2328 3.2273
464 1 7.89209 6.42341 5.6167
465 1 5.02331 8.17015 3.90281
466 1 4.9342 6.41973 3.20059
467 1 6.11944 8.79913 3.23648
468 1 5.14784 6.95637 3.97564
469 1 6.16268 8.19327 4.09365
470 1 7.30041 7.50107 3.30013
471 1 8.54145 7.27282 3.38306
472 1 8.35679 6.75362 4.10813
473 1 5.14127 8.89749 3.29634
474 1 4.51941 7.91909 4.71053
475 1 5.55676 8.204 4.76388
476 1 6.68903 8.15926 4.81567
477 1 7.38444 8.72458 3.12128
478 1 6.93421 9.44392 4.83775
479 1 7.93057 8.53327 2.34536
480 1 8.44308 7.92146 4.10429
481 1 8.93133 4.13581 2.57455
482 1 9.59028 4.95317 0.00955022
483 1 9.37431 4.48424 0.819432
484 1 9.44977 5.06223 3.32137
485 1 11.2136 3.30421 1.57961
486 1 10.1633 5.02016 12.1652
487 1 10.0565 6.62912 1.65381
488 1 10.7629 4.93029 0.0288823
489 1 10.7412 4.43837 0.814493
490 1 12.3995 4.67483 12.0962
491 1 11.212 4.7758 2.47557
492 1 11.8235 4.65436 12.8253
493 1 12.4428 4.0574 1.6477
494 1 12.9617 4.67891 12.9238
495 1 12.336 4.67863 2.39935
496 1 12.9259 4.06857 0.862918
497 1 9.00013 5.76166 1.42284
498 1 9.62089 6.27547 0.0651328
499 1 9.54799 6.09424 3.285
500 1 8.90111 4.62773 1.64494
501 1 9.57017 5.59055 0.773474
502 1 10.712 6.03465 0.00181241
503 1 10.6161 5.94017 3.16588
504 1 10.1343 5.47774 1.7279
505 1 10.5886 5.52909 0.851216
506 1 11.2277 5.94514 12.0678
507 1 11.2038 5.46045 1.51887
508 1 11.7465 5.26815 0.698022
509 1 12.2238 5.19355 1.57264
510 1 12.851 5.66469 0.0926536
511 1 12.4392 5.76615 2.37755
512 1 12.9216 5.19248 0.929311
513 1 9.02609 6.23898 2.38012
514 1 9.67425 7.35504 0.010792
515 1 9.00239 7.44845 2.44896
516 1 9.57016 6.7716 0.87659
517 1 10.0777 5.99005 2.40839
518 1 10.7063 7.09804 0.0281017
519 1 10.1386 7.19852 2.50279
520 1 10.6526 6.63451 0.96514
521 1 11.2176 5.87591 2.29629
522 1 11.8898 6.97549 0.0191326
523 1 11.1913 6.73625 2.06775
524 1 12.9478 6.29515 0.796
525 1 12.3658 6.30545 1.59317
526 1 12.3006 6.89974 12.1391
527 1 12.3699 6.99163 2.30957
528 1 12.9765 6.91108 0.0250475
529 1 8.95486 7.87503 1.63269
530 1 10.1605 8.29357 12.1463
531 1 8.43308 8.55253 3.37183
532 1 9.55035 7.92313 0.81691
533 1 10.098 7.85837 1.59385
534 1 10.6331 8.31225 0.0672478
535 1 10.2496 8.23391 2.49502
536 1 10.6938 7.65463 0.874199
537 1 11.179 7.659 1.79675
538 1 11.6896 7.61627 0.758702
539 1 11.2597 8.26467 2.39819
540 1 11.6674 6.54534 1.01592
541 1 12.2959 7.56152 1.57232
542 1 12.8285 7.97323 12.9322
543 1 12.7031 8.1288 3.1333
544 1 12.8471 7.37778 0.800992
545 1 8.95474 5.17457 2.37498
546 1 9.36208 3.4009 4.0601
547 1 9.96706 4.82486 2.39183
548 1 10.757 4.31936 4.02599
549 1 11.8758 4.6322 3.34721
550 1 11.8024 4.03528 4.08671
551 1 12.8963 4.69616 3.22729
552 1 13.042 4.04502 3.982
553 1 9.74127 6.73442 4.1595
554 1 9.47457 5.66948 4.14875
555 1 10.4908 4.84889 3.14339
556 1 10.6701 5.39818 3.9648
557 1 11.8356 5.88133 3.09625
558 1 11.7497 5.38395 3.90349
559 1 12.9716 5.78365 3.30165
560 1 12.8227 5.25645 4.09067
561 1 9.55981 8.28344 3.2762
562 1 9.57071 7.18267 3.28454
563 1 10.7549 7.1215 3.10516
564 1 10.6862 6.47435 3.90869
565 1 11.8068 6.91398 3.0306
566 1 11.7336 6.46423 3.89796
567 1 12.8779 6.88388 3.18369
568 1 12.8041 6.36907 4.0324
569 1 9.02764 8.4655 2.49101
570 1 9.07128 7.88789 4.83388
571 1 10.7265 8.18717 3.26582
572 1 10.7014 7.56679 4.11442
573 1 12.2319 8.10788 2.31812
574 1 11.8713 8.66482 3.9182
575 1 12.9487 7.48822 3.88437
576 1 12.3823 7.43427 4.85438
577 1 0.0902026 8.59336 1.60518
578 1 13.3832 9.1681 12.2258
579 1 0.573733 9.21548 3.14392
580 1 0.572225 8.53123 0.706402
581 1 1.07918 8.71559 1.61483
582 1 1.68878 9.35755 0.00462293
583 1 1.18695 9.28046 2.30979
584 1 1.64765 8.81198 0.874165
585 1 2.19946 8.9142 1.57885
586 1 2.75919 9.42086 0.102937
587 1 2.31914 9.38287 2.47381
588 1 2.81404 9.05323 0.886155
589 1 3.33501 9.12784 1.75703
590 1 3.86722 9.6754 12.9406
591 1 3.52857 8.40731 2.53696
592 1 3.91504 9.04404 0.859109
593 1 13.4219 9.06198 2.4539
594 1 0.55932 9.74193 0.884657
595 1 0.114435 10.3364 2.56066
596 1 0.545521 9.25683 12.9474
597 1 1.18831 9.98938 1.64408
598 1 1.70655 10.474 12.8289
599 1 1.26696 10.5302 2.35404
600 1 1.65225 10.0039 0.760409
601 1 2.28773 10.0184 1.63279
602 1 2.89015 10.6413 0.0297303
603 1 2.36642 10.5625 2.30505
604 1 2.70774 10.1993 0.800199
605 1 3.42879 10.1527 1.51665
606 1 3.93556 10.8244 12.9062
607 1 3.36057 10.689 2.46129
608 1 4.00356 10.1223 0.820909
609 1 0.0583096 10.8391 1.62847
610 1 0.575849 12.0464 0.79051
611 1 13.3385 11.3419 2.33549
612 1 0.509647 10.2531 0.0328108
613 1 0.586704 10.7856 0.783007
614 1 2.82206 11.7245 12.8502
615 1 0.980725 11.5858 2.45478
616 1 1.18788 11.1231 1.52352
617 1 2.20407 11.3401 1.64301
618 1 2.89745 12.2615 0.702153
619 1 2.25684 11.6137 2.56276
620 1 1.70671 11.0286 0.64512
621 1 3.34024 11.3013 1.67537
622 1 4.02019 11.8447 0.113754
623 1 3.3472 11.9021 2.38932
624 1 3.8832 11.2597 0.844463
625 1 0.124233 12.025 1.65761
626 1 13.3379 12.4499 12.28
627 1 0.017747 12.5887 2.41468
628 1 0.595305 12.5943 12.8392
629 1 1.19595 12.1426 1.60733
630 1 1.70913 0.256125 12.7926
631 1 1.11032 12.6226 2.46618
632 1 1.73678 12.2819 0.786742
633 1 2.25874 12.4275 1.63693
634 1 1.74974 12.668 12.8435
635 1 2.16991 12.8062 2.39309
636 1 2.77401 12.9112 0.028196
637 1 3.39212 12.4538 1.65498
638 1 3.94659 0.155136 0.629471
639 1 3.88865 13.001 3.25122
640 1 3.89462 12.5196 0.807284
641 1 0.59061 9.94499 3.96661
642 1 0.60714 8.67228 3.97196
643 1 1.70015 9.40148 3.14052
644 1 1.71958 8.87649 4.07213
645 1 2.82799 8.41283 3.3278
646 1 2.67889 9.14015 4.17955
647 1 3.31625 9.6592 2.45326
648 1 3.89286 9.80004 3.51586
649 1 0.688161 10.3603 3.17131
650 1 0.0689133 9.72612 4.86235
651 1 1.87961 10.441 3.17527
652 1 1.72384 9.97882 4.05982
653 1 2.81834 10.4681 3.43277
654 1 3.91601 10.3147 4.24603
655 1 3.88019 10.8479 3.19078
656 1 4.50854 10.1757 4.99288
657 1 0.577524 11.5701 3.24984
658 1 0.554783 11.0225 4.05293
659 1 1.68317 11.5661 3.25249
660 1 1.50665 11.1126 4.02785
661 1 2.92469 11.613 3.29128
662 1 2.79976 11.0244 4.09383
663 1 3.99756 11.9387 3.2109
664 1 4.05143 11.4221 4.09682
665 1 0.649977 13.1649 4.04911
666 1 0.375098 12.6501 3.24906
667 1 1.49561 12.6308 3.23032
668 1 1.77625 12.1517 4.03496
669 1 2.73088 12.8008 3.19956
670 1 2.73698 12.2157 3.96716
671 1 3.89606 0.267467 4.02981
672 1 3.81333 12.4805 4.03341
673 1 4.4589 9.1637 1.63603
674 1 4.95977 9.79622 12.8867
675 1 4.33382 9.70244 2.50967
676 1 5.02911 9.32033 0.839992
677 1 5.63086 9.35793 1.71771
678 1 6.19248 11.0458 0.00753777
679 1 5.50493 9.98911 2.46145
680 1 6.11195 9.27666 0.893331
681 1 6.67962 9.32337 1.72109
682 1 7.12252 9.94661 0.0239427
683 1 6.58764 9.95673 2.51638
684 1 7.2113 9.25196 0.879868
685 1 8.40076 9.19599 0.822869
686 1 8.24647 9.63893 12.9162
687 1 7.87038 10.3597 1.7015
688 1 8.48843 8.60912 0.0283066
689 1 4.42311 10.2681 1.69847
690 1 4.98369 10.9423 0.0872344
691 1 4.47857 10.9315 2.38062
692 1 4.99262 10.3627 0.891921
693 1 5.63041 10.504 1.65003
694 1 5.65751 11.0301 12.3591
695 1 5.6049 11.0468 2.55447
696 1 6.028 9.96307 0.072983
697 1 6.19404 10.4253 0.830278
698 1 7.15023 10.9376 0.00341455
699 1 6.60592 11.0059 2.41989
700 1 6.62746 10.4602 1.62796
701 1 7.23697 10.2525 0.93281
702 1 8.24313 10.8702 0.0504941
703 1 7.73874 10.8988 2.36716
704 1 8.32973 10.1887 0.76788
705 1 4.42448 11.4775 1.56641
706 1 5.10552 12.0453 12.9226
707 1 4.49777 12.1115 2.33517
708 1 5.14648 11.4969 0.846392
709 1 5.61647 11.5441 1.5699
710 1 6.13618 12.1457 0.0906474
711 1 5.52297 12.6506 1.65006
712 1 6.25857 11.5682 0.982009
713 1 6.86057 11.6481 1.70362
714 1 7.3422 11.9828 0.0716385
715 1 6.58433 12.1939 2.47357
716 1 7.27419 11.4479 0.79439
717 1 7.83992 11.5534 1.65665
718 1 8.49882 11.9872 0.115786
719 1 7.86997 12.109 2.43992
720 1 8.32438 11.3258 0.864003
721 1 4.49406 12.6045 1.68236
722 1 5.67867 13.1908 12.2414
723 1 4.44207 0.898329 2.60971
724 1 5.01501 13.0815 12.9054
725 1 5.01701 12.573 0.830351
726 1 6.12966 0.55712 0.779976
727 1 5.5388 13.2339 2.49967
728 1 6.1914 12.6775 0.813612
729 1 6.62091 12.7415 1.59176
730 1 7.14996 13.1715 0.106055
731 1 6.73338 13.1653 2.5339
732 1 7.30851 12.5959 0.853824
733 1 7.70895 12.7943 1.69293
734 1 8.31629 13.1429 12.9129
735 1 7.87102 13.1308 2.53763
736 1 8.42193 12.5075 0.93181
737 1 4.86902 9.98762 3.21813
738 1 4.99512 9.31174 4.14214
739 1 6.02849 9.83098 3.24152
740 1 6.26385 9.2853 4.00033
741 1 7.687 9.60847 2.40453
742 1 7.30043 9.29057 3.9325
743 1 8.39653 9.63322 3.13254
744 1 8.96206 8.91835 4.94322
745 1 5.06302 11.0341 3.27673
746 1 5.01912 10.2842 4.18839
747 1 6.25596 11.0006 3.34456
748 1 6.09063 10.4164 4.04075
749 1 7.31998 11.071 3.215
750 1 7.405 10.4596 3.98229
751 1 8.29775 10.7344 3.05663
752 1 8.47529 10.2354 4.00206
753 1 5.58723 12.0884 2.36729
754 1 4.96446 12.0394 3.33842
755 1 6.07098 12.1818 3.27862
756 1 6.15986 11.6947 4.00473
757 1 7.3541 12.0971 3.17457
758 1 7.257 11.6795 4.15843
759 1 8.38839 11.8688 3.46713
760 1 8.42929 11.2058 4.00173
761 1 4.83257 0.31057 3.95956
762 1 5.07319 12.6366 4.15859
763 1 6.06988 13.2982 3.20326
764 1 6.23577 12.7872 4.06022
765 1 7.39951 13.3945 3.34822
766 1 7.3794 12.6992 3.96185
767 1 8.48025 13.0522 3.22957
768 1 8.52245 12.6476 4.10011
769 1 8.96023 8.95756 1.55693
770 1 9.53675 9.16532 0.75213
771 1 8.9771 9.53517 2.40463
772 1 9.51125 9.58775 12.9175
773 1 10.0512 8.8451 1.75285
774 1 10.1455 9.49668 12.1474
775 1 10.2571 9.51754 2.40563
776 1 10.5881 8.81136 0.834548
777 1 11.0963 8.70445 1.54923
778 1 11.622 9.17088 0.0714526
779 1 11.3155 9.26935 2.31669
780 1 11.8237 8.70278 0.890824
781 1 12.3984 8.60976 1.50743
782 1 12.7814 9.06018 12.9163
783 1 12.3152 9.13063 2.44289
784 1 12.9732 8.47545 0.716585
785 1 8.85178 10.1422 1.81957
786 1 9.55066 10.6366 0.127431
787 1 9.09951 10.7427 2.41495
788 1 9.33122 10.2151 0.865375
789 1 9.98643 9.99081 1.58996
790 1 11.177 9.91165 1.62335
791 1 10.1691 10.5715 2.42869
792 1 10.7031 9.48235 12.9271
793 1 11.7642 9.81058 0.812899
794 1 11.8306 10.3955 12.919
795 1 11.7548 10.3567 3.23554
796 1 13.0291 9.63603 0.85785
797 1 12.3298 9.79951 1.59224
798 1 12.8448 10.1425 12.9508
799 1 12.3456 10.149 2.46953
800 1 13.3279 9.74798 1.76955
801 1 8.86217 11.31 1.59115
802 1 9.45655 11.76 12.8758
803 1 8.82977 11.758 2.56314
804 1 9.51466 11.3441 0.882329
805 1 10.1797 11.0633 1.51086
806 1 10.7229 11.669 0.0360602
807 1 9.94769 11.5816 2.47927
808 1 10.687 9.82148 0.885926
809 1 10.7564 11.016 0.841559
810 1 11.7569 10.841 0.830247
811 1 11.2579 11.6229 2.43024
812 1 11.247 10.9791 1.73085
813 1 12.3279 10.8003 1.67139
814 1 12.8298 11.3108 0.0339715
815 1 12.3198 11.3599 2.39714
816 1 12.888 10.763 0.832722
817 1 8.94713 12.438 1.7058
818 1 9.61948 12.8877 12.8792
819 1 9.0174 12.9112 2.5679
820 1 9.54275 12.3532 0.753815
821 1 9.99323 12.2289 1.76878
822 1 10.6867 12.8452 0.0745761
823 1 10.1586 12.8382 2.41226
824 1 10.6164 12.2539 0.708407
825 1 10.9983 12.1068 1.6517
826 1 0.00764054 12.0031 11.2964
827 1 11.3271 12.7066 2.35024
828 1 11.7051 12.0556 0.919561
829 1 12.2739 11.9215 1.518
830 1 11.6942 12.5939 0.0194165
831 1 12.358 12.3673 2.35193
832 1 12.9798 11.842 0.805713
833 1 9.5456 9.52721 3.15477
834 1 10.0606 8.98993 4.83786
835 1 10.5761 9.21549 3.3129
836 1 10.6684 8.66774 4.19688
837 1 11.1953 10.4918 2.45646
838 1 11.7239 7.79568 3.27013
839 1 12.8592 9.18972 3.29753
840 1 12.9686 8.59515 4.00995
841 1 9.50062 10.51 3.31764
842 1 9.51407 10.0106 4.06502
843 1 10.6548 10.5589 3.28663
844 1 10.6897 9.95165 4.02862
845 1 11.8291 9.75987 4.06115
846 1 11.603 9.2269 3.25236
847 1 12.8275 10.3038 3.21303
848 1 12.9013 9.74138 4.0442
849 1 9.5497 11.7434 3.33237
850 1 9.54615 11.1701 3.96683
851 1 10.6532 11.6491 3.13668
852 1 10.682 11.0725 3.98033
853 1 11.7846 11.4585 3.32671
854 1 11.7997 10.9045 4.14284
855 1 12.9546 11.3733 3.29811
856 1 13.0153 10.9395 4.03678
857 1 9.63036 12.8792 3.20372
858 1 9.51405 12.3793 4.05997
859 1 10.7053 12.6582 3.19725
860 1 10.5661 12.0831 4.12262
861 1 11.7915 12.5469 3.25498
862 1 11.7717 12.0434 4.03646
863 1 12.8267 12.3708 3.20385
864 1 12.8999 12.0412 4.13625
865 1 0.0745089 13.1654 4.94775
866 1 13.4212 0.293449 5.80168
867 1 1.2044 13.1163 4.90709
868 1 1.10701 0.4114 5.48645
869 1 2.21029 12.7035 5.5616
870 1 2.28839 13.3498 4.80896
871 1 3.4176 13.3794 4.90007
872 1 3.40891 0.733435 5.57576
873 1 13.4276 0.801705 5.02922
874 1 0.0162549 1.42506 5.68032
875 1 1.18103 0.976519 4.8032
876 1 1.03979 1.58769 5.71078
877 1 2.26391 0.370578 5.73499
878 1 1.79501 1.44722 6.23334
879 1 2.74789 1.1018 4.17221
880 1 3.36642 1.81463 5.69819
881 1 13.3284 1.93655 4.81072
882 1 0.100644 2.51739 5.74552
883 1 1.04864 2.1269 4.76978
884 1 1.10839 2.70508 5.68288
885 1 2.20251 2.02027 5.07386
886 1 2.24008 2.81623 5.49786
887 1 3.36643 2.91466 5.63643
888 1 3.88486 3.01744 6.56543
889 1 0.0344704 2.99385 4.86832
890 1 0.0287729 3.59793 5.6523
891 1 1.12702 3.22964 4.79514
892 1 1.09575 3.63015 5.88192
893 1 2.24535 3.43453 4.87625
894 1 2.28534 3.97704 5.63946
895 1 3.42702 3.43548 4.82726
896 1 3.28537 4.05635 5.44509
897 1 0.0290478 13.0723 8.085
898 1 0.59714 0.38777 6.52054
899 1 0.532282 13.2132 7.24078
900 1 1.09973 13.3417 8.15919
901 1 1.66856 0.019157 7.30585
902 1 1.62283 0.450043 6.43853
903 1 2.24616 13.2542 8.09049
904 1 2.75381 13.3875 7.29545
905 1 3.3606 0.086104 8.03713
906 1 3.4312 0.651314 8.88861
907 1 3.92527 0.749432 6.40287
908 1 3.97039 0.210873 7.27716
909 1 13.3275 0.788775 8.17309
910 1 0.60083 1.41733 6.56611
911 1 0.415051 0.888123 7.33961
912 1 2.27436 1.00251 8.04331
913 1 1.6714 0.991846 7.31958
914 1 2.27697 0.623957 8.86074
915 1 2.77412 1.08426 7.21245
916 1 2.66839 1.81078 6.18931
917 1 2.88314 0.742144 6.43247
918 1 2.83707 0.680501 9.69651
919 1 3.56485 2.33198 7.19362
920 1 3.87619 1.24459 7.33446
921 1 0.123749 1.93433 7.93858
922 1 1.1434 2.14781 8.09312
923 1 1.18292 2.60408 9.07168
924 1 1.01278 1.07888 8.00987
925 1 1.80961 2.56938 6.39306
926 1 1.35514 2.01863 7.1927
927 1 2.19961 2.27758 7.98238
928 1 2.81383 2.98354 6.37882
929 1 2.60563 2.09974 7.1729
930 1 3.34306 1.73521 8.95509
931 1 3.37741 2.89891 8.87998
932 1 3.27656 2.27818 8.13707
933 1 0.106845 2.96922 8.06706
934 1 0.540316 3.60911 6.6031
935 1 0.595207 2.39271 6.62194
936 1 0.699933 3.04607 7.23462
937 1 1.86107 3.67319 6.44561
938 1 1.75658 3.14713 7.19361
939 1 2.79528 3.25259 7.40054
940 1 2.92627 3.94037 6.5028
941 1 3.26262 3.56234 8.02326
942 1 3.38208 3.93989 8.9479
943 1 4.44406 4.25468 5.7671
944 1 3.94798 1.83207 6.50115
945 1 4.44887 0.158442 4.9096
946 1 4.52484 0.806388 5.69541
947 1 5.4734 0.367602 4.76328
948 1 5.71243 0.94434 5.74974
949 1 6.65855 0.375774 4.89398
950 1 6.70236 0.928439 5.65628
951 1 7.73003 0.2147 4.91729
952 1 8.28485 0.694066 6.41001
953 1 3.36345 1.23937 4.82159
954 1 3.99533 3.51825 4.02208
955 1 5.52827 1.38254 4.8202
956 1 5.60129 2.04384 5.72015
957 1 6.77414 1.47545 4.89569
958 1 6.77755 3.15766 5.7829
959 1 7.87393 1.5495 5.02861
960 1 7.8651 2.10599 5.73043
961 1 4.36652 2.02202 5.62895
962 1 5.07073 3.72604 7.30067
963 1 5.56253 2.51119 4.82163
964 1 5.0095 3.13654 6.59056
965 1 6.61586 2.55013 5.01113
966 1 6.74145 4.21032 5.62189
967 1 7.7956 2.54645 4.75846
968 1 7.84801 3.11997 5.6468
969 1 5.73486 3.54802 4.90032
970 1 3.90327 4.03142 6.34968
971 1 5.02237 4.6505 4.09309
972 1 5.53605 4.81906 4.83376
973 1 6.76768 3.7115 4.7231
974 1 6.67027 4.79837 4.81654
975 1 7.80583 4.13731 5.75209
976 1 8.42914 4.16876 6.47424
977 1 4.50934 0.20511 8.22286
978 1 5.01201 0.925735 6.41549
979 1 4.92644 0.45616 7.42321
980 1 5.69548 0.496616 8.11754
981 1 6.07478 0.915787 6.52927
982 1 6.18933 0.428191 7.31646
983 1 6.63004 13.1763 8.899
984 1 7.8722 0.847719 5.62358
985 1 6.70929 0.500738 8.17862
986 1 7.69455 0.397226 8.19455
987 1 8.26467 0.170577 7.40766
988 1 8.45517 13.0854 6.47742
989 1 4.40841 1.41579 8.14453
990 1 4.94431 1.96698 6.39572
991 1 5.02653 1.47104 7.36395
992 1 5.54863 1.52434 8.16967