data.lammps (converted from cfg to data.lammps)
    
2298  atoms
1  atom types
0.0   13.4375  xlo xhi
0.0   13.4375  ylo yhi
0.0   12.952  zlo zhi
0.0  0.0 0.0 xy xz yz
    
    
    
Atoms
  
1 1 0.0460159 12.9962 1.63725
2 1 0.576551 0.308532 0.0492584
3 1 0.0102027 0.691749 1.56761
4 1 0.994453 13.3663 1.65169
5 1 1.72868 13.3896 0.688702
6 1 2.18163 0.021239 11.3839
7 1 1.11651 0.463848 2.47703
8 1 2.54939 1.11075 0.818869
9 1 2.07458 0.12344 1.62177
10 1 2.79566 0.118264 0.809396
11 1 2.2491 0.537716 2.47267
12 1 2.83679 0.754383 12.8985
13 1 3.21752 0.203887 1.53799
14 1 3.91843 0.759219 12.9371
15 1 3.25495 0.794688 2.37689
16 1 3.99931 0.336222 0.973957
17 1 12.8785 0.799953 0.826411
18 1 1.00623 2.07436 11.2794
19 1 13.4041 1.37906 2.37597
20 1 0.595082 0.892955 0.868783
21 1 1.22893 1.01217 1.50976
22 1 0.557422 1.46404 0.0163329
23 1 1.1053 1.9903 1.59728
24 1 1.58051 1.46119 0.0848168
25 1 2.09452 1.21386 1.53437
26 1 2.0677 1.74726 12.225
27 1 2.31231 1.59359 2.50634
28 1 2.89789 1.78687 3.29884
29 1 3.28472 1.33525 1.66701
30 1 3.7715 1.41715 0.78186
31 1 4.94042 1.8945 3.237
32 1 5.66964 1.37827 1.71376
33 1 12.7642 1.81605 0.823365
34 1 0.563714 2.53556 12.9363
35 1 13.3694 2.57367 2.58663
36 1 13.4025 1.94082 1.6209
37 1 2.35979 2.21951 1.52016
38 1 1.52303 2.78141 0.0175088
39 1 1.15785 2.49475 2.29135
40 1 2.74172 2.27354 0.714279
41 1 2.75646 1.74701 12.7875
42 1 2.75705 2.86797 0.0460106
43 1 2.09616 2.60029 2.3367
44 1 3.3915 2.50255 1.73227
45 1 3.39498 1.98097 2.50828
46 1 3.87034 3.00071 12.9271
47 1 2.67312 2.78909 3.21812
48 1 3.8429 2.42911 0.878915
49 1 0.103014 3.02952 1.73489
50 1 0.463989 3.1193 0.819495
51 1 13.3749 3.64769 2.36233
52 1 1.1333 3.28748 1.59277
53 1 0.340466 1.99645 0.726431
54 1 1.60549 3.91451 0.184231
55 1 1.07266 3.65297 2.48513
56 1 1.73338 3.24897 0.856044
57 1 2.19652 3.28122 1.6573
58 1 2.76901 4.0638 12.9243
59 1 2.21068 3.9395 2.38667
60 1 2.79104 3.49102 0.79319
61 1 3.37176 3.47574 1.46417
62 1 3.872 4.24511 0.00731521
63 1 3.41642 3.99165 2.43113
64 1 3.89009 3.6021 0.712089
65 1 13.3507 0.355016 2.41241
66 1 0.384945 0.300332 3.25077
67 1 1.60276 0.478982 3.26745
68 1 1.70881 0.0446688 3.99732
69 1 2.80592 0.660707 3.35309
70 1 2.76184 0.0521575 3.94975
71 1 3.83326 0.994345 3.19288
72 1 3.92496 0.254796 4.00236
73 1 0.540832 1.49519 3.31701
74 1 0.674061 1.00084 3.97765
75 1 0.93693 1.4326 2.48283
76 1 1.6638 1.23935 3.98414
77 1 1.68739 1.71593 3.07742
78 1 2.12228 0.976097 4.86678
79 1 3.88154 2.27717 3.93102
80 1 4.38484 1.93724 2.5743
81 1 0.605913 2.52231 3.19152
82 1 0.469958 2.24056 4.07418
83 1 1.65111 2.8346 3.25897
84 1 1.56345 2.27103 3.98187
85 1 2.66265 2.28327 4.13757
86 1 3.389 2.49491 4.75091
87 1 3.16488 3.08267 2.46685
88 1 4.5078 2.61603 4.88283
89 1 0.491834 3.60598 3.28796
90 1 0.423035 3.1678 4.1825
91 1 1.66313 3.80791 3.34576
92 1 1.73097 3.34967 4.21391
93 1 2.65935 3.94478 3.24559
94 1 2.83119 3.38116 4.05887
95 1 3.72799 4.11609 3.39459
96 1 3.90929 2.86868 3.15847
97 1 4.56849 0.259357 1.59981
98 1 4.93503 0.888291 0.0693661
99 1 4.41687 1.47251 1.4821
100 1 5.19455 0.339875 0.747516
101 1 5.59826 0.301437 1.75672
102 1 6.2724 0.725409 12.8923
103 1 4.90204 0.884955 3.35282
104 1 6.1435 0.453689 0.836953
105 1 6.61817 0.287106 1.72398
106 1 7.34576 0.638047 0.0416703
107 1 6.62557 0.868424 2.55612
108 1 7.84468 0.11899 1.71574
109 1 7.2322 0.123692 0.957036
110 1 7.87604 1.29419 11.2994
111 1 7.84816 0.737494 2.49884
112 1 8.38802 13.4003 0.900422
113 1 5.03061 1.37783 0.877541
114 1 4.37289 1.96601 12.2347
115 1 3.9198 1.38938 4.01465
116 1 6.17168 1.47491 0.898498
117 1 6.02607 1.84064 0.0516633
118 1 5.93084 2.53446 0.815363
119 1 5.46272 2.14596 2.41543
120 1 4.96043 2.01606 0.0668284
121 1 6.70453 1.4428 1.66212
122 1 6.56584 1.93504 12.1742
123 1 6.69161 2.03535 2.41129
124 1 7.33459 1.2705 0.81846
125 1 7.65322 1.1792 1.66508
126 1 8.31205 1.72168 0.02824
127 1 7.80093 1.97752 2.52424
128 1 7.85283 1.82042 12.2396
129 1 4.48438 2.52746 1.77449
130 1 5.00192 3.23619 12.8679
131 1 4.50757 3.21136 2.48324
132 1 4.79759 2.67496 0.802792
133 1 5.54502 2.4342 1.60078
134 1 6.0763 3.05457 0.145978
135 1 5.60817 3.25468 2.35251
136 1 6.63358 2.63477 1.59812
137 1 7.66959 3.01958 2.41183
138 1 7.95133 2.98095 12.1922
139 1 6.62098 3.13177 2.43174
140 1 7.0593 1.86715 0.0150809
141 1 7.1982 2.39724 0.902885
142 1 8.34377 2.78972 0.053879
143 1 7.86555 3.49887 1.56709
144 1 7.82761 2.30725 1.65597
145 1 4.44756 3.5498 1.59819
146 1 4.9789 4.35204 0.0660393
147 1 4.37112 4.29673 2.41108
148 1 5.05109 3.68726 0.739124
149 1 5.51306 3.72751 1.65071
150 1 6.30455 4.31735 0.00669352
151 1 5.5834 4.29867 2.48158
152 1 6.07996 3.72676 0.890184
153 1 7.17595 4.07447 0.0519428
154 1 6.86955 4.11372 12.0778
155 1 6.77126 3.67262 1.53933
156 1 7.34538 3.60281 0.774853
157 1 7.87436 4.00952 2.45179
158 1 8.31953 3.98474 0.0459233
159 1 8.37141 4.04657 3.22702
160 1 8.50348 3.35053 0.751228
161 1 5.42101 1.01826 2.41177
162 1 4.48495 13.2681 2.51887
163 1 6.01936 0.944424 3.22172
164 1 6.23523 0.535279 4.01916
165 1 7.28016 0.767015 3.15793
166 1 7.32995 0.155422 3.98644
167 1 8.43691 0.469948 3.24672
168 1 8.4379 0.135238 4.05727
169 1 5.27679 1.46361 4.23398
170 1 4.53512 1.41293 4.86741
171 1 6.02567 2.03406 3.20243
172 1 6.15833 1.5495 3.98334
173 1 7.26232 1.90702 3.21207
174 1 7.24191 1.37029 4.06129
175 1 8.38005 1.63157 3.25894
176 1 8.1933 1.18819 4.05129
177 1 5.17751 3.03416 3.28915
178 1 4.92099 2.52946 3.9588
179 1 6.18927 3.08509 3.23424
180 1 6.09201 2.61463 4.17193
181 1 7.25313 3.00464 3.3869
182 1 7.13784 2.44749 4.0851
183 1 8.31057 2.95792 3.24081
184 1 8.27843 2.43864 3.96538
185 1 4.97018 3.63615 4.00765
186 1 4.29089 3.58143 4.69326
187 1 6.81633 4.13406 2.65476
188 1 6.03617 3.66927 4.12655
189 1 7.30633 4.31477 3.29612
190 1 7.14256 3.64838 3.95204
191 1 8.38121 4.96262 3.33492
192 1 7.67932 3.37343 4.86109
193 1 8.92593 0.0320366 1.65957
194 1 8.96417 0.436582 12.1567
195 1 9.06761 0.525461 2.49044
196 1 9.5654 13.348 0.982469
197 1 10.1887 13.1603 1.74386
198 1 10.5213 0.400358 0.107289
199 1 9.9531 0.408057 2.46807
200 1 10.6538 13.0989 0.819928
201 1 11.1865 13.2957 1.70109
202 1 11.1647 0.206047 12.3012
203 1 11.2726 0.364898 2.58642
204 1 11.6612 13.1467 0.790774
205 1 12.1447 13.03 1.56196
206 1 11.8383 0.215988 12.8854
207 1 12.3914 0.168315 2.35527
208 1 12.8598 13.1096 0.88544
209 1 8.37377 1.03759 0.739708
210 1 9.42185 2.00506 0.783956
211 1 8.75184 1.1382 1.57733
212 1 9.491 0.398029 0.0732541
213 1 9.51976 1.05892 0.962394
214 1 10.2358 2.6741 12.0607
215 1 9.89089 1.42978 2.34452
216 1 10.6346 0.964432 0.777305
217 1 11.1785 0.823089 1.62186
218 1 11.6793 1.9377 0.86928
219 1 11.0573 1.34929 2.51998
220 1 11.7565 0.897488 0.841337
221 1 12.3255 0.818853 1.61286
222 1 12.4387 0.250119 12.1578
223 1 12.2862 1.33523 2.46025
224 1 0.621319 13.0957 0.734167
225 1 8.98708 2.21693 1.6243
226 1 9.04121 2.86342 12.1515
227 1 9.36942 2.6743 3.20163
228 1 10.1486 1.98845 1.65375
229 1 10.1171 0.863595 1.57846
230 1 9.8507 1.98558 11.3224
231 1 9.9762 2.58191 2.4438
232 1 10.6279 2.07186 0.917574
233 1 11.2686 1.88422 1.74787
234 1 12.3247 2.43994 12.2005
235 1 11.1751 2.55013 2.35589
236 1 11.7292 2.30377 0.114286
237 1 12.4168 1.86988 1.69805
238 1 11.8382 3.45591 0.0488947
239 1 12.2582 2.40381 2.56911
240 1 12.7988 1.21742 0.0970221
241 1 8.81106 2.76463 2.37784
242 1 9.5793 4.29812 0.875376
243 1 9.0684 3.34613 1.50173
244 1 9.62955 3.01547 0.783659
245 1 10.153 3.1482 1.74037
246 1 10.6425 3.62517 12.8422
247 1 10.2142 4.27358 1.51941
248 1 10.0642 3.09908 11.3847
249 1 11.184 3.12931 1.63839
250 1 12.391 3.58189 12.0433
251 1 11.1319 4.26809 1.652
252 1 11.6621 4.11122 0.826766
253 1 12.3689 2.97169 1.57513
254 1 12.9113 3.2072 0.857746
255 1 12.2385 3.58202 2.2977
256 1 12.7691 2.40482 0.0421927
257 1 9.49687 0.522011 3.42333
258 1 9.60128 13.2199 3.9552
259 1 10.6218 0.294236 3.20381
260 1 10.7178 13.2026 4.18969
261 1 11.8603 0.267539 3.2359
262 1 11.7131 13.0528 3.99321
263 1 12.7602 0.31826 3.32513
264 1 12.9905 13.1048 3.96049
265 1 8.7674 1.54988 2.36186
266 1 9.58591 1.22511 4.00269
267 1 10.5194 1.46828 3.1401
268 1 10.6911 0.750824 4.0655
269 1 11.691 1.44082 3.24541
270 1 11.6742 0.836957 3.973
271 1 12.9708 1.36704 3.32739
272 1 12.843 0.795003 4.11046
273 1 9.38922 2.49628 4.11639
274 1 9.42881 1.76451 3.27705
275 1 10.5194 2.5889 3.29906
276 1 10.5239 1.89455 4.0709
277 1 11.4738 2.46807 3.20967
278 1 11.7552 1.97491 4.02995
279 1 12.712 2.585 3.31117
280 1 12.8946 1.98468 4.10348
281 1 10.0259 3.73571 2.42631
282 1 9.47455 3.54168 3.45859
283 1 12.8711 3.69756 3.10779
284 1 10.5678 3.22378 4.06899
285 1 11.2917 3.66379 2.55652
286 1 11.572 2.95974 4.11779
287 1 11.8662 3.61803 3.33803
288 1 12.8282 3.06986 4.09225
289 1 13.3876 4.25958 1.70262
290 1 0.628504 4.82959 0.0696091
291 1 0.0225796 4.83323 2.49386
292 1 0.482241 4.16083 0.923681
293 1 1.1513 4.31561 1.58299
294 1 1.80623 5.08104 12.8384
295 1 1.19101 4.69756 2.52427
296 1 1.65851 4.53827 0.78357
297 1 2.26504 4.35036 1.54552
298 1 2.77577 5.14558 12.9417
299 1 2.20808 5.02909 2.36239
300 1 2.77576 4.62005 0.807903
301 1 3.3441 4.52695 1.63424
302 1 3.93596 5.32242 12.8948
303 1 3.30184 5.04172 2.39973
304 1 3.9986 4.73868 0.996327
305 1 0.0663122 5.39775 1.64406
306 1 0.549744 5.95408 0.0703748
307 1 0.0460173 5.87055 2.48734
308 1 0.599988 5.34286 0.872679
309 1 1.14086 5.35564 1.79467
310 1 1.61188 6.07231 12.79
311 1 1.13728 5.9431 2.34514
312 1 1.60276 5.54313 0.782618
313 1 2.29801 5.5474 1.48448
314 1 2.74636 6.33082 12.9169
315 1 2.32051 6.0143 2.25384
316 1 2.87936 5.72557 0.705482
317 1 3.38442 5.71655 1.60685
318 1 3.9458 6.47775 0.0143003
319 1 3.40874 6.12543 2.52622
320 1 3.93858 5.6966 0.770311
321 1 0.00533301 6.50925 1.65796
322 1 0.639637 6.99525 0.00710601
323 1 0.0755681 7.05037 2.39635
324 1 0.493026 6.43815 0.948443
325 1 1.27152 6.60911 1.60343
326 1 1.64943 7.10305 0.0462392
327 1 1.12199 7.07412 2.4777
328 1 1.76041 6.51801 0.802016
329 1 2.34154 6.70718 1.66554
330 1 2.82626 7.37799 0.0124513
331 1 2.40143 7.09923 2.54069
332 1 2.89308 6.80256 0.875351
333 1 3.41867 6.78398 1.78739
334 1 3.84924 7.55873 0.0107674
335 1 3.49445 7.48286 2.4685
336 1 3.96178 6.8617 0.869711
337 1 0.0656822 7.63654 1.54997
338 1 0.579946 8.21621 12.8209
339 1 0.021337 8.07803 2.30385
340 1 0.681906 7.59931 0.775627
341 1 1.26589 7.63567 1.67564
342 1 1.75866 8.38864 0.176193
343 1 1.22853 8.29721 2.51862
344 1 1.74674 7.67406 0.763838
345 1 2.24765 7.86516 1.74252
346 1 2.80814 8.53011 0.134109
347 1 2.32024 8.18532 2.64537
348 1 2.83926 7.86694 0.957706
349 1 3.31814 8.0365 1.71728
350 1 3.94267 8.70477 12.934
351 1 2.88328 9.72007 3.26776
352 1 3.94725 8.01646 0.760124
353 1 0.632668 4.75558 3.31227
354 1 0.529511 4.23277 4.10516
355 1 1.83541 5.01524 3.33954
356 1 1.58804 4.44768 4.09237
357 1 2.77769 4.98531 3.33239
358 1 2.76134 4.42076 4.21707
359 1 3.97315 5.14113 3.30767
360 1 3.95279 4.76897 4.09343
361 1 0.761826 6.00382 3.21445
362 1 0.56543 5.43144 3.98682
363 1 1.79013 6.02452 3.12839
364 1 1.70662 5.52455 4.0616
365 1 2.95462 6.18185 3.2277
366 1 2.99679 5.59895 3.96924
367 1 4.04381 6.27394 3.10053
368 1 3.97032 5.86365 4.05177
369 1 0.483406 7.03023 3.28941
370 1 0.608854 6.41813 4.03075
371 1 1.65346 7.23995 3.21258
372 1 1.74886 6.6214 3.94182
373 1 2.86352 7.30024 3.23954
374 1 2.66462 6.70367 4.0911
375 1 5.1575 7.54692 3.2505
376 1 3.2872 6.88351 4.77453
377 1 0.43158 8.11028 3.18514
378 1 0.536356 7.64985 4.06522
379 1 1.69341 8.25194 3.32183
380 1 1.68552 7.78444 4.1115
381 1 3.97942 8.49132 3.37396
382 1 2.75158 7.92823 4.00507
383 1 3.9055 7.346 3.32685
384 1 4.05079 7.95602 4.12705
385 1 4.64149 4.68809 1.61774
386 1 5.02562 5.48035 0.0158808
387 1 4.34623 5.28661 2.30031
388 1 5.21738 4.83453 0.751141
389 1 5.56345 5.4702 2.5491
390 1 6.18727 4.8196 0.863926
391 1 6.17168 5.28256 3.32037
392 1 5.63464 4.92242 1.72987
393 1 6.74012 4.52748 1.80052
394 1 6.70976 5.32309 12.2186
395 1 6.6482 5.22637 2.54211
396 1 7.30166 4.71496 0.794373
397 1 7.84864 4.58373 1.6857
398 1 8.44551 5.10647 0.0525569
399 1 7.93595 5.26626 2.33199
400 1 8.3562 4.55074 0.859453
401 1 4.43447 5.95742 1.68399
402 1 5.07071 6.55929 0.0933631
403 1 4.62214 6.49639 2.49752
404 1 4.99012 5.90186 0.816985
405 1 5.6642 5.95778 1.55705
406 1 6.10745 6.43099 0.0524968
407 1 6.29883 6.37521 3.34076
408 1 6.26573 5.9695 0.96358
409 1 6.76993 5.69577 1.79433
410 1 7.2093 5.65312 0.884137
411 1 6.76476 6.61675 2.24243
412 1 7.30086 5.26336 12.9507
413 1 7.82654 5.85014 1.58262
414 1 8.44177 6.28332 0.0786201
415 1 7.84879 6.2844 2.46971
416 1 8.41382 5.71349 0.820873
417 1 4.55019 7.1438 1.66914
418 1 5.01485 7.59525 0.0868087
419 1 4.57283 7.65835 2.56246
420 1 5.04273 7.04191 0.898869
421 1 5.71364 6.5317 2.406
422 1 6.15709 7.48742 0.0106502
423 1 5.58561 7.09546 1.63595
424 1 6.16859 7.03254 0.837669
425 1 6.75193 7.20415 1.57887
426 1 7.31633 7.49997 0.0452719
427 1 6.76069 7.71499 2.53509
428 1 7.30092 6.77512 0.76999
429 1 7.87538 6.90098 1.49552
430 1 8.38082 6.97404 0.631208
431 1 7.99516 7.37431 2.41123
432 1 8.96639 6.67126 1.62255
433 1 4.47973 8.1213 1.62809
434 1 5.02511 8.77686 12.8901
435 1 4.48146 8.66841 2.34074
436 1 5.08677 8.17845 0.712445
437 1 5.75895 7.76806 2.47015
438 1 6.14791 8.66015 0.0211522
439 1 5.58093 8.21237 1.64924
440 1 6.19793 8.12244 0.839975
441 1 6.76278 8.21601 1.68893
442 1 7.28994 8.66463 0.0597991
443 1 6.79954 8.74198 2.45118
444 1 7.30632 8.00722 0.793204
445 1 7.7953 7.93612 1.65154
446 1 8.34356 7.89954 0.807873
447 1 7.92974 8.99001 1.54828
448 1 8.43609 7.52415 12.7606
449 1 4.97423 5.266 3.24169
450 1 4.90454 4.15658 3.128
451 1 6.2243 5.98891 4.10946
452 1 6.03234 4.26348 3.35209
453 1 7.3632 5.43081 3.27667
454 1 7.27569 4.76199 4.13166
455 1 8.30853 5.63414 4.06015
456 1 8.28658 3.62368 4.12603
457 1 5.09168 5.79399 4.16311
458 1 4.49459 5.3958 5.58836
459 1 6.37822 7.04192 4.09042
460 1 6.2252 7.45058 3.27904
461 1 7.21594 6.35064 3.06333
462 1 8.60602 6.29039 6.55045
463 1 8.50701 6.21464 3.31733
464 1 7.84503 6.28539 5.86403
465 1 5.12848 8.20146 4.02924
466 1 5.15479 6.38606 3.39605
467 1 6.13895 8.7432 3.31587
468 1 5.20686 6.97787 4.05856
469 1 6.17304 8.25366 4.06359
470 1 7.34633 7.49628 3.2101
471 1 8.49327 7.33353 3.30229
472 1 8.54477 6.80382 4.12074
473 1 4.97741 8.72119 3.16641
474 1 4.46297 8.12634 4.86594
475 1 5.64476 8.17836 4.86938
476 1 6.72692 8.23463 4.88764
477 1 7.37693 8.5978 3.32054
478 1 6.83496 9.2262 4.79447
479 1 7.85824 8.59211 2.51464
480 1 8.46286 7.85494 4.06961
481 1 9.04135 3.81484 2.49676
482 1 9.47793 4.98365 0.00178901
483 1 8.96219 4.3244 1.60234
484 1 9.88281 4.77738 2.45971
485 1 10.6227 3.17423 0.715133
486 1 10.2272 4.809 12.1112
487 1 10.1427 5.32462 1.65293
488 1 10.6451 4.93178 0.0211136
489 1 10.6899 4.27435 0.581349
490 1 12.3067 4.73765 12.2
491 1 11.138 4.87015 2.51874
492 1 11.8688 4.68075 0.157632
493 1 12.2177 4.23671 1.67429
494 1 12.9263 4.60694 0.0183754
495 1 12.3093 4.78083 2.46063
496 1 12.8798 4.20884 0.878129
497 1 8.93312 4.99708 2.25309
498 1 9.6895 6.10955 12.8835
499 1 9.54853 5.97517 3.16597
500 1 9.04857 5.56811 1.53677
501 1 9.5276 5.37934 0.824032
502 1 10.716 5.93384 12.792
503 1 10.0043 6.04428 2.32435
504 1 10.6327 5.45705 0.776374
505 1 11.2646 5.22626 1.61669
506 1 11.321 5.88088 12.0914
507 1 11.1609 5.91136 2.3312
508 1 11.7789 5.31258 0.887358
509 1 12.48 5.2507 1.56236
510 1 12.8359 5.90106 0.140752
511 1 12.3495 5.74936 2.50861
512 1 12.9693 5.23741 0.763285
513 1 8.91516 6.03092 2.39608
514 1 9.42655 7.20378 0.0108507
515 1 9.05061 7.19652 2.42595
516 1 9.45578 6.54901 0.77586
517 1 10.0715 6.54666 1.53034
518 1 10.6252 7.13269 12.8912
519 1 10.0697 7.06701 2.49299
520 1 10.6681 6.39063 0.770143
521 1 11.1894 6.44938 1.67669
522 1 11.805 6.95452 12.9375
523 1 11.3274 7.13565 2.3798
524 1 12.7964 6.52606 0.825988
525 1 12.361 6.29015 1.64007
526 1 12.3677 6.96892 12.2048
527 1 12.4581 6.9968 2.27383
528 1 13.0432 7.05939 12.907
529 1 8.93369 7.70526 1.56064
530 1 10.1501 8.22755 12.0556
531 1 8.48274 8.41995 3.2872
532 1 9.52817 7.80992 0.82353
533 1 10.078 7.58562 1.59078
534 1 10.5891 8.25062 0.0625747
535 1 10.1564 8.23627 2.39332
536 1 10.6245 7.63511 0.713927
537 1 11.1983 7.57702 1.6685
538 1 11.7039 7.53324 0.774081
539 1 11.1741 8.17019 2.47483
540 1 11.7165 6.42028 0.842939
541 1 12.2997 7.59743 1.49864
542 1 12.8327 8.13415 0.00186739
543 1 12.9558 8.1096 3.15227
544 1 12.8757 7.63742 0.78718
545 1 9.37718 4.83793 3.34418
546 1 9.44543 4.10814 4.01849
547 1 10.4488 4.84722 3.26047
548 1 10.6367 3.71185 3.09967
549 1 11.6368 4.73472 3.23213
550 1 11.6485 4.07914 4.02661
551 1 12.8554 4.64669 3.21979
552 1 12.8114 4.19251 4.15684
553 1 9.61749 6.4597 3.97064
554 1 9.44734 5.45615 4.04464
555 1 10.6408 5.93987 3.17135
556 1 10.6773 5.4013 4.01021
557 1 11.7258 6.09869 3.13093
558 1 11.8097 5.32099 3.88134
559 1 12.8092 5.90131 3.39454
560 1 12.9352 5.23647 3.92958
561 1 9.50488 8.3613 3.14035
562 1 9.57317 7.17658 3.29435
563 1 10.659 7.13694 3.12918
564 1 10.7333 6.53342 4.01053
565 1 11.7807 7.04423 3.26875
566 1 11.8041 6.38314 4.20576
567 1 12.8359 6.98626 3.17038
568 1 12.8808 6.52108 3.97929
569 1 8.91807 8.26578 2.31251
570 1 9.07835 7.95668 4.805
571 1 10.5822 8.19876 3.2673
572 1 10.7627 7.67925 3.98073
573 1 12.3747 8.08553 2.29829
574 1 11.8153 8.63401 3.96856
575 1 12.8538 7.54553 4.07169
576 1 12.1985 7.44454 4.93541
577 1 0.112096 8.70497 1.58377
578 1 0.513419 9.2323 0.0936817
579 1 0.698446 9.2482 3.29834
580 1 0.682301 8.59882 0.754207
581 1 1.31228 8.59983 1.63992
582 1 1.67879 9.52734 12.9216
583 1 1.16188 9.32936 2.34532
584 1 1.7992 8.99035 0.876743
585 1 2.4207 8.88449 1.6452
586 1 2.85801 9.77522 0.143449
587 1 2.31993 9.36514 2.50227
588 1 2.97118 9.04664 0.731772
589 1 3.39447 9.19359 1.62849
590 1 4.01108 9.77455 0.156553
591 1 3.50059 8.66758 2.46246
592 1 4.0495 9.0948 0.92312
593 1 0.207937 9.22103 2.48712
594 1 0.780459 10.3183 12.9233
595 1 0.0358057 10.4004 2.48074
596 1 0.662848 9.84195 0.936006
597 1 1.29448 9.95996 1.66822
598 1 1.70744 10.6398 12.9048
599 1 1.12478 10.5573 2.43536
600 1 1.84572 10.0206 0.77128
601 1 2.33556 9.93112 1.66087
602 1 2.89258 10.8544 12.9346
603 1 2.30897 10.5818 2.30809
604 1 2.83089 10.3588 0.967044
605 1 3.47238 10.1945 1.59324
606 1 4.02597 10.954 0.154309
607 1 3.44431 10.7257 2.54872
608 1 4.03801 10.2351 0.863896
609 1 0.086346 10.9229 1.77164
610 1 0.547726 12.2273 0.506406
611 1 0.139437 11.6222 2.38998
612 1 0.577274 10.9153 0.87326
613 1 1.18429 11.0394 1.47168
614 1 2.06009 11.8206 12.0346
615 1 1.24517 11.6013 2.52629
616 1 1.85092 11.1074 0.834547
617 1 2.30769 11.2005 1.69916
618 1 2.86955 12.4344 0.910774
619 1 2.30397 11.7507 2.43078
620 1 2.93711 11.373 0.979038
621 1 3.47226 11.3991 1.82289
622 1 3.85128 12.1095 12.9491
623 1 3.46646 12.0328 2.41161
624 1 4.01744 11.5329 0.807442
625 1 0.146811 12.0164 1.46386
626 1 0.00467159 12.4729 12.1181
627 1 0.0589589 12.591 2.4786
628 1 0.706356 11.553 0.144596
629 1 1.123 12.0871 1.57635
630 1 1.72486 0.570507 0.0738466
631 1 1.22583 12.6352 2.34615
632 1 1.7039 12.3393 0.900541
633 1 2.2973 12.261 1.62748
634 1 1.63323 12.7787 12.8216
635 1 2.24776 12.9727 2.36107
636 1 2.84385 12.975 0.0730805
637 1 3.43295 12.5636 1.65359
638 1 3.88838 13.2303 0.118809
639 1 3.37537 13.2036 2.49247
640 1 4.03372 12.6783 0.835664
641 1 0.578394 9.91767 4.05706
642 1 0.549733 8.75433 4.08026
643 1 1.72266 9.50042 3.16757
644 1 1.73548 8.99255 3.91303
645 1 2.97498 8.52925 3.14879
646 1 2.78519 9.05635 4.10056
647 1 3.41752 9.72 2.56799
648 1 4.1251 9.72418 3.25339
649 1 0.665919 10.5446 3.24394
650 1 0.0863941 9.73892 4.90723
651 1 1.77771 10.5379 3.19343
652 1 1.77863 10.1469 4.08447
653 1 2.78371 10.8811 3.21853
654 1 3.0077 10.2015 4.01239
655 1 4.03801 11.0006 3.24686
656 1 3.94065 10.3996 3.94473
657 1 0.587272 11.6707 3.32539
658 1 0.609362 11.049 4.02424
659 1 1.77887 11.7483 3.32018
660 1 1.64062 11.1695 4.07725
661 1 2.94013 11.8623 3.18207
662 1 2.78332 11.3417 4.04446
663 1 4.05322 12.0508 3.18496
664 1 4.10517 11.503 4.0812
665 1 0.607035 13.2688 4.08747
666 1 0.696652 12.805 3.15038
667 1 1.67025 12.8085 3.2632
668 1 1.74967 12.3361 4.11151
669 1 2.79442 12.8785 3.19193
670 1 2.78941 12.4027 4.0256
671 1 4.0741 13.2084 3.25165
672 1 3.83964 12.5755 4.08186
673 1 4.66663 9.33405 1.58975
674 1 4.99954 9.83798 12.8307
675 1 4.44022 9.74766 2.38699
676 1 5.13259 9.30942 0.809026
677 1 5.70043 9.32088 1.68551
678 1 6.2416 10.9781 0.0250363
679 1 5.6224 9.94023 2.39616
680 1 6.14267 9.34261 0.751472
681 1 6.75452 9.18741 1.56779
682 1 7.34668 9.77432 0.0845962
683 1 6.81973 9.7349 2.56068
684 1 7.32118 9.12042 0.826959
685 1 8.50133 9.0178 0.817125
686 1 8.41557 9.53495 12.9145
687 1 7.90156 10.0544 1.57564
688 1 8.52271 8.48331 12.8548
689 1 4.56578 10.4156 1.69495
690 1 5.0892 10.8341 0.108424
691 1 4.61386 10.9173 2.5278
692 1 5.10723 10.3238 0.836274
693 1 5.63938 10.4806 1.60724
694 1 5.61821 11.1022 12.292
695 1 5.73889 11.0406 2.48296
696 1 6.17188 9.80112 0.0701747
697 1 6.25028 10.4742 0.860416
698 1 7.45667 10.7952 12.8339
699 1 6.77456 10.8893 2.32764
700 1 6.8022 10.1958 1.66375
701 1 7.31504 10.4379 0.807125
702 1 8.52405 10.5892 0.0359097
703 1 7.95097 10.6727 2.42717
704 1 8.46756 10.1785 0.852102
705 1 4.51031 11.4219 1.55745
706 1 5.16781 12.0832 0.0309278
707 1 4.64983 11.9691 2.40124
708 1 5.20702 11.5585 0.823284
709 1 5.62632 11.6389 1.54664
710 1 6.31538 12.1223 0.0695749
711 1 5.79186 12.1502 2.49533
712 1 6.33373 11.5542 0.802255
713 1 6.78556 11.5261 1.75747
714 1 7.44107 12.0274 12.9035
715 1 6.83015 12.2408 2.53987
716 1 7.403 11.3942 0.810904
717 1 7.92168 11.192 1.66485
718 1 8.37694 11.733 12.8891
719 1 7.87812 11.8374 2.36721
720 1 8.53842 11.2858 0.872435
721 1 4.48213 12.6334 1.75558
722 1 4.98902 13.2391 12.9195
723 1 4.38847 0.928129 2.33104
724 1 4.97519 12.6365 0.780626
725 1 5.66473 12.6871 1.6293
726 1 6.19832 13.2123 12.9409
727 1 5.46615 13.2541 2.66687
728 1 6.0996 12.7135 0.789278
729 1 6.71801 12.5974 1.53916
730 1 7.32569 13.0807 0.229219
731 1 6.61644 13.1883 2.51593
732 1 7.35074 12.4003 0.883098
733 1 7.85554 12.3436 1.58538
734 1 8.37476 12.8123 0.0269736
735 1 7.8654 13.0058 2.4381
736 1 8.50001 12.3434 0.895275
737 1 5.0414 9.94067 3.29702
738 1 5.09374 9.24825 3.99196
739 1 6.15893 9.94591 3.17422
740 1 6.18535 9.47295 4.01607
741 1 7.87792 9.54385 2.3647
742 1 7.2656 9.25197 3.90196
743 1 8.51157 9.47979 3.25776
744 1 8.95865 8.99821 5.01266
745 1 5.1055 11.0849 3.2914
746 1 5.23802 10.4664 4.0924
747 1 6.25408 11.0238 3.26436
748 1 6.3812 10.4738 4.06075
749 1 7.32235 10.9102 3.21689
750 1 7.45592 10.3007 4.20317
751 1 8.45821 10.5356 3.10452
752 1 8.49335 10.032 4.04104
753 1 5.16867 12.3658 3.17336
754 1 5.18666 11.6244 3.99493
755 1 6.2934 12.0406 3.30582
756 1 6.30627 11.5377 4.13262
757 1 7.38227 11.9024 3.26475
758 1 7.44193 11.4066 4.19006
759 1 8.43273 11.6883 3.24837
760 1 8.416 11.0991 3.96155
761 1 5.07271 0.300946 3.97532
762 1 4.98842 12.764 3.90815
763 1 5.99072 13.2615 3.40171
764 1 6.09224 12.6335 4.07347
765 1 7.20074 13.1228 3.32093
766 1 7.20269 12.5032 4.06976
767 1 8.395 12.734 3.33508
768 1 8.47143 12.3653 4.13622
769 1 9.06414 8.89299 1.63484
770 1 9.56535 8.92249 0.799083
771 1 8.97019 9.44127 2.45563
772 1 9.59691 9.52618 0.0695815
773 1 10.1383 8.74052 1.59064
774 1 10.1305 9.40192 12.2038
775 1 10.1382 9.42971 2.43048
776 1 10.7318 8.74433 0.846175
777 1 11.3295 8.64586 1.62294
778 1 11.8197 9.18202 12.8556
779 1 11.3096 9.21223 2.48251
780 1 11.7439 8.6534 0.715968
781 1 12.3617 8.67705 1.5026
782 1 12.8743 9.34366 12.9257
783 1 12.4598 9.20578 2.41699
784 1 12.904 8.76747 0.788273
785 1 9.01877 9.95568 1.72101
786 1 9.54157 10.4262 12.9141
787 1 9.10697 10.6335 2.43825
788 1 9.61845 10.0624 0.886378
789 1 10.3066 9.86894 1.6821
790 1 11.3762 9.72284 1.59207
791 1 10.1628 10.509 2.44807
792 1 10.7357 9.29022 12.9338
793 1 11.8897 9.8225 0.668707
794 1 11.8648 10.3672 12.9096
795 1 11.8708 10.2842 3.35101
796 1 12.9903 9.8991 0.76807
797 1 12.4131 9.76871 1.6409
798 1 13.0541 10.4143 0.00661641
799 1 12.3167 10.2792 2.40867
800 1 0.0754384 9.79078 1.59446
801 1 9.07077 11.0991 1.68302
802 1 9.50648 11.6808 0.0382394
803 1 8.98437 11.7805 2.40083
804 1 9.51765 11.0734 0.776579
805 1 10.1887 10.9949 1.61666
806 1 10.6106 11.5571 0.13958
807 1 10.1375 11.6254 2.59264
808 1 10.7431 9.90733 0.804643
809 1 10.6652 10.9594 0.810161
810 1 11.9159 10.9168 0.926277
811 1 11.1934 11.4713 2.36273
812 1 11.2326 10.9253 1.5406
813 1 12.4777 10.9066 1.70851
814 1 12.8461 11.4602 12.792
815 1 12.3904 11.4007 2.52298
816 1 13.0315 11.0103 0.802453
817 1 9.08007 12.3124 1.60234
818 1 9.3608 12.8584 0.15521
819 1 8.92691 12.8523 2.4331
820 1 9.6053 12.1697 0.807882
821 1 10.2265 12.0751 1.61194
822 1 10.5738 12.6344 12.8612
823 1 10.14 12.5689 2.40736
824 1 10.7522 12.1558 0.857523
825 1 11.3956 12.0171 1.62935
826 1 13.3458 11.9542 11.379
827 1 11.2418 12.5673 2.44645
828 1 11.8597 11.9743 0.68364
829 1 12.4445 11.9915 1.8185
830 1 11.7841 12.5086 12.9032
831 1 12.5337 12.6003 2.51361
832 1 12.8613 12.0219 0.843327
833 1 9.67903 9.34655 3.23281
834 1 10.1276 8.79233 4.89824
835 1 10.8074 9.36183 3.25979
836 1 10.5875 8.75463 4.1159
837 1 11.2866 10.3798 2.39811
838 1 11.8334 8.06503 3.14397
839 1 13.0808 9.38749 3.19807
840 1 12.8999 8.66055 3.98389
841 1 9.64881 10.5171 3.33919
842 1 9.57685 9.89386 3.97375
843 1 10.8667 10.4006 3.19697
844 1 10.6547 9.78327 4.09862
845 1 11.8629 9.80354 4.13237
846 1 12.0155 9.2097 3.25356
847 1 12.8486 10.3677 3.27123
848 1 12.9409 9.80151 4.10375
849 1 9.49252 11.6294 3.25788
850 1 9.56184 11.0945 4.15202
851 1 10.7117 11.5608 3.28364
852 1 10.623 10.905 3.98348
853 1 11.8361 11.4469 3.19221
854 1 11.8564 10.9466 3.9977
855 1 13.0386 11.4128 3.27692
856 1 12.9557 10.9249 4.12214
857 1 9.55292 12.8586 3.15958
858 1 9.63793 12.2186 4.03277
859 1 10.7066 12.7291 3.22993
860 1 10.7028 12.0817 4.02463
861 1 11.8497 12.5478 3.19797
862 1 11.8712 11.9916 3.97927
863 1 12.9457 12.4606 3.33335
864 1 12.924 12.0167 4.22093
865 1 0.0226908 13.1453 4.95475
866 1 13.3846 0.32787 5.75165
867 1 1.20339 13.29 4.81415
868 1 1.05061 0.453455 5.74268
869 1 2.05617 13.0359 5.72666
870 1 2.41954 0.0632537 4.94682
871 1 3.41095 0.249193 4.89419
872 1 3.42125 0.840614 5.70666
873 1 0.0911213 0.781564 4.82431
874 1 0.0591418 1.31436 5.74613
875 1 1.03716 0.937119 4.85076
876 1 1.09135 1.56126 5.70418
877 1 2.15047 0.631374 5.76038
878 1 2.33721 1.60102 5.68515
879 1 2.68348 1.21818 4.10606
880 1 3.45446 2.03119 5.44108
881 1 0.0696061 1.87151 4.86225
882 1 13.3996 2.46962 5.63542
883 1 1.18054 2.0964 4.89749
884 1 0.971382 2.77397 5.65824
885 1 2.24701 2.2521 4.99704
886 1 2.10856 2.9762 5.5583
887 1 3.26279 2.97221 5.77539
888 1 3.97251 3.21398 6.46188
889 1 13.3507 3.10553 5.13516
890 1 13.2365 3.79057 5.65267
891 1 1.03334 3.2304 4.81041
892 1 1.10036 3.84416 5.73148
893 1 2.2838 3.56717 4.9103
894 1 2.22645 4.06431 5.77053
895 1 3.37507 3.57878 4.9488
896 1 3.25757 4.18094 5.77449
897 1 0.0880762 12.9724 8.05388
898 1 0.538833 0.227039 6.51281
899 1 0.540475 13.1498 7.23526
900 1 1.28204 13.222 8.05089
901 1 1.62088 0.473059 6.59866
902 1 1.73607 13.2728 7.19007
903 1 2.2529 0.138421 8.08463
904 1 2.76692 0.671475 6.46157
905 1 2.83955 0.231902 7.39937
906 1 3.29471 0.178313 8.24838
907 1 3.88353 0.829229 6.5703
908 1 3.8256 0.444302 7.44436
909 1 13.309 0.763835 8.10895
910 1 0.533044 1.42339 6.55176
911 1 0.505327 0.941994 7.34867
912 1 1.08201 0.795728 8.0806
913 1 1.66933 1.69338 6.36873
914 1 1.62978 1.11386 7.27458
915 1 2.22657 1.24722 8.12118
916 1 2.87522 1.84634 6.48223
917 1 2.63085 1.35172 7.17393
918 1 3.27825 0.756237 8.89322
919 1 4.02821 2.61011 7.21419
920 1 3.87887 1.49676 7.36377
921 1 13.3677 1.86421 8.1064
922 1 0.599304 2.63085 6.56161
923 1 0.508275 2.04312 7.33112
924 1 1.04164 2.02295 8.20141
925 1 1.7211 2.6149 6.41614
926 1 1.58657 2.18862 7.35589
927 1 2.12388 2.35483 8.14318
928 1 2.72944 2.91114 6.47885
929 1 2.75492 2.41415 7.32158
930 1 3.31175 1.96952 9.0214
931 1 3.30151 3.52053 8.14449
932 1 3.34853 2.45617 8.00681
933 1 0.0254096 3.02708 8.20226
934 1 0.488037 3.65175 6.39045
935 1 0.439813 3.16238 7.28722
936 1 1.06393 3.13948 8.22131
937 1 1.65839 3.82822 6.60428
938 1 1.54308 3.31213 7.21977
939 1 2.09907 3.35546 8.05508
940 1 2.79104 4.02992 6.61521
941 1 2.84907 3.42812 7.2856
942 1 3.38622 4.18523 8.85396
943 1 4.44308 4.22914 5.74872
944 1 3.81526 1.88773 6.49769
945 1 4.54812 0.329002 4.85298
946 1 4.43114 0.966492 5.56233
947 1 5.64034 0.371164 4.89204
948 1 5.5174 0.825505 5.68022
949 1 6.69787 0.378994 4.76029
950 1 6.64725 0.85932 5.68173
951 1 7.85541 0.0586696 4.93743
952 1 8.50656 0.605139 6.4447
953 1 3.26103 1.23079 4.81225
954 1 3.8139 3.44786 3.92933
955 1 5.67718 1.54053 4.98381
956 1 5.60294 2.12609 5.75355
957 1 6.69871 1.4371 4.93164
958 1 6.63577 3.1413 5.61394
959 1 7.73406 1.24464 4.97381
960 1 7.78893 1.78893 5.66796
961 1 4.43165 2.0732 5.65287
962 1 5.03002 3.70956 7.18089
963 1 5.56718 2.64332 4.95766
964 1 5.05247 3.0579 6.54472
965 1 6.71765 2.51019 4.95803
966 1 6.59867 4.23315 5.78873
967 1 7.91086 2.28838 4.84128
968 1 7.75416 2.84974 5.74783
969 1 5.42304 3.78693 4.87535
970 1 3.89892 4.27724 6.49176
971 1 5.01838 4.74395 4.11583
972 1 5.57972 4.89034 4.88612
973 1 6.70748 3.7847 4.91892
974 1 6.62252 4.79399 4.91973
975 1 7.88491 3.90625 5.67014
976 1 8.56794 4.04087 6.39805
977 1 4.55846 0.244596 8.10197
978 1 5.02104 0.98076 6.47319
979 1 5.0231 0.369436 7.26724
980 1 5.61819 0.328279 7.94465
981 1 6.22143 1.01385 6.61994
982 1 6.12829 0.280363 7.0988
983 1 6.77626 13.2705 8.8953
984 1 7.89215 0.672832 5.64629
985 1 6.6232 0.344306 8.09113
986 1 7.84669 0.127271 8.06546
987 1 8.43945 0.0529529 7.33815
988 1 8.41726 12.9452 6.46999
989 1 4.44002 1.38678 8.18575
990 1 5.01912 1.99193 6.46368
991 1 4.96 1.4726 7.28314