data.lammps (converted from cfg to data.lammps)
    
2298  atoms
1  atom types
0.0   13.4375  xlo xhi
0.0   13.4375  ylo yhi
0.0   12.952  zlo zhi
0.0  0.0 0.0 xy xz yz
    
    
    
Atoms
  
1 1 0.00399321 13.1831 1.66286
2 1 0.472677 0.300452 0.0193924
3 1 13.4057 1.35386 2.45911
4 1 1.03096 13.2809 1.74479
5 1 1.63857 13.4339 0.857163
6 1 1.11196 13.4054 11.3988
7 1 0.99342 0.468865 2.44112
8 1 2.77843 1.15956 0.795729
9 1 2.22252 0.0441341 1.57628
10 1 2.89883 0.154955 0.809751
11 1 2.22381 0.603732 2.4861
12 1 2.80828 0.637565 12.9089
13 1 3.44329 13.1683 2.39419
14 1 3.87122 0.740627 0.014621
15 1 3.34199 1.97881 2.50611
16 1 3.42472 0.148706 1.63305
17 1 12.9374 0.745531 0.802887
18 1 1.09682 1.96968 11.5063
19 1 13.3979 0.763906 1.5853
20 1 0.651576 0.929585 0.796466
21 1 1.62549 1.1953 0.845245
22 1 0.657025 2.60987 0.155379
23 1 1.1523 2.05881 1.66451
24 1 1.79083 1.60772 0.0927096
25 1 2.30962 1.09787 1.67784
26 1 2.23851 1.67052 12.2496
27 1 2.20949 1.8653 2.50787
28 1 2.78616 2.91677 3.28529
29 1 3.25996 0.884495 2.42394
30 1 3.91909 1.3309 0.816669
31 1 5.0439 2.06947 3.20179
32 1 5.66227 0.275326 1.72449
33 1 12.7979 2.44782 0.000132153
34 1 0.491853 2.03962 0.855785
35 1 13.4373 2.44233 2.44876
36 1 12.8764 1.90997 0.842499
37 1 2.22936 2.19883 1.52252
38 1 1.78347 2.69978 0.053133
39 1 1.23321 2.71975 2.50143
40 1 2.74485 2.38471 0.809587
41 1 3.32708 1.34338 1.65221
42 1 2.83093 2.94459 0.0339924
43 1 2.30471 2.82577 2.4193
44 1 3.28012 2.35424 1.51849
45 1 2.88205 1.78338 3.30317
46 1 3.96842 2.36911 0.753326
47 1 2.85352 2.43109 4.21378
48 1 4.07381 1.77433 12.8729
49 1 0.133735 3.01992 1.43199
50 1 0.946075 3.17535 1.59229
51 1 0.0093799 3.53729 2.37607
52 1 1.23616 3.75617 2.41047
53 1 0.522938 1.46009 0.0741608
54 1 1.63839 3.83346 12.9003
55 1 1.71798 3.8881 3.2208
56 1 1.584 3.34377 0.796029
57 1 2.18967 3.36068 1.55192
58 1 2.75302 3.99219 0.0474082
59 1 2.29248 3.873 2.37873
60 1 2.76321 3.52256 0.874989
61 1 3.33508 3.52033 1.63156
62 1 4.70362 4.23612 12.1021
63 1 2.81426 3.96946 3.17404
64 1 3.85752 3.74263 0.83264
65 1 13.3673 0.328713 2.47543
66 1 0.508393 0.255682 3.32383
67 1 1.62551 0.456821 3.17869
68 1 1.69405 13.1978 4.15845
69 1 2.9269 0.619572 3.24288
70 1 2.67585 0.0864902 4.01349
71 1 3.96132 1.82006 3.27642
72 1 3.94065 0.779698 3.22831
73 1 0.57153 1.5451 3.28217
74 1 0.672294 1.031 3.97761
75 1 1.11614 0.95078 1.65727
76 1 1.73833 0.911737 3.96734
77 1 1.17267 1.57344 2.47658
78 1 2.28235 2.27619 4.8244
79 1 4.59188 2.48089 4.89149
80 1 4.42096 2.03854 2.50217
81 1 0.680354 2.61629 3.13117
82 1 0.480393 2.14488 4.04912
83 1 1.70465 2.67072 3.36795
84 1 1.10137 2.05614 4.86291
85 1 1.8306 1.58435 3.27386
86 1 3.94443 2.48727 4.00197
87 1 3.4113 2.91321 2.36779
88 1 4.52974 3.03034 5.57455
89 1 0.634188 3.75053 3.16745
90 1 0.63222 3.15546 3.98113
91 1 1.74815 3.34838 4.0347
92 1 1.19657 3.20565 4.77371
93 1 2.76491 4.60077 4.07901
94 1 2.87786 3.68686 4.07505
95 1 3.96487 4.18026 3.26205
96 1 3.86785 3.0394 3.27415
97 1 4.65554 0.250177 1.62589
98 1 5.08882 0.515026 0.691796
99 1 4.40277 1.46462 1.65665
100 1 5.63635 1.47071 1.5586
101 1 5.62556 0.998586 2.41019
102 1 6.27482 0.973261 0.0771725
103 1 5.00828 13.381 3.37861
104 1 6.64878 0.405063 1.5815
105 1 6.65237 1.45297 1.48931
106 1 7.40378 0.78126 12.9512
107 1 6.77097 0.709054 2.3134
108 1 7.88347 0.579692 2.3354
109 1 7.21563 0.244769 0.83365
110 1 7.93002 1.3539 11.3322
111 1 7.25692 0.854351 3.26684
112 1 7.8178 0.135735 1.35747
113 1 5.06596 0.934891 12.8003
114 1 4.53395 1.99656 12.0288
115 1 3.93476 1.36127 4.17411
116 1 5.09295 1.52973 0.828381
117 1 6.15636 2.17158 12.9113
118 1 6.12042 2.67262 0.899915
119 1 5.47605 1.92381 2.39168
120 1 5.02663 2.08778 0.0282861
121 1 6.23239 1.60929 0.721421
122 1 6.7741 1.9178 12.2127
123 1 6.64453 1.90993 2.40756
124 1 7.38909 1.43275 0.85967
125 1 7.80148 1.35287 1.72376
126 1 8.48378 1.76202 0.169815
127 1 7.77161 1.80518 2.48616
128 1 8.04366 1.82179 12.1792
129 1 4.56617 2.61444 1.66173
130 1 5.04988 3.0939 12.9382
131 1 4.48861 3.14497 2.50917
132 1 5.14932 2.60881 0.847589
133 1 5.68686 2.56574 1.7172
134 1 6.19352 3.19942 0.0254296
135 1 5.02482 3.2314 3.21765
136 1 6.89134 2.57476 1.67008
137 1 7.8821 2.96308 2.46241
138 1 7.77006 2.83182 12.1048
139 1 6.69276 2.98042 2.39144
140 1 7.3874 1.78619 12.8418
141 1 7.12716 2.35713 0.729765
142 1 8.34492 2.95403 12.9107
143 1 7.87055 3.51119 1.61185
144 1 7.83104 2.47038 1.63246
145 1 4.42095 3.80342 1.61842
146 1 5.08759 4.20383 0.110334
147 1 4.59075 4.83578 1.50134
148 1 5.00578 3.63269 0.847581
149 1 5.57238 3.80541 1.69268
150 1 6.16088 4.29085 0.0628052
151 1 5.64595 4.37012 2.51546
152 1 6.17203 3.76431 0.921682
153 1 7.16897 4.2875 0.025416
154 1 6.78211 4.21517 12.0187
155 1 6.76211 3.71523 1.52828
156 1 7.38772 3.60761 0.751814
157 1 7.85337 4.13778 2.41814
158 1 8.41643 4.10032 12.8251
159 1 8.35431 3.98349 3.37209
160 1 8.467 3.47065 0.858642
161 1 5.05814 0.950461 3.20517
162 1 4.5196 13.2469 2.44206
163 1 6.1603 0.972147 3.2025
164 1 6.24535 0.338344 4.07912
165 1 7.21317 1.27869 4.10076
166 1 7.19015 0.110542 4.09339
167 1 8.22031 0.665111 3.23554
168 1 8.4311 13.3999 3.87683
169 1 5.09311 1.39136 4.05181
170 1 4.48972 1.37929 4.85257
171 1 6.13912 2.07877 3.17509
172 1 6.199 2.52172 4.05661
173 1 7.11787 1.91878 3.2719
174 1 6.65906 1.36788 4.87237
175 1 8.35786 1.85388 3.19311
176 1 8.42662 1.19501 4.01794
177 1 5.09051 3.72877 4.13967
178 1 4.99643 2.61694 4.0306
179 1 5.57772 3.14028 2.34677
180 1 6.10626 3.1214 3.23651
181 1 7.35907 3.03408 3.17172
182 1 7.32177 2.5049 4.04642
183 1 8.51385 3.02563 3.26086
184 1 8.25687 2.38985 4.0084
185 1 5.0643 4.29942 3.23913
186 1 4.36861 3.64847 4.84859
187 1 6.74584 4.16209 2.43924
188 1 6.19033 3.66294 3.96084
189 1 7.37571 4.15307 3.22356
190 1 7.2926 3.49783 4.09527
191 1 8.28766 5.12865 3.21259
192 1 7.82867 3.57145 4.8778
193 1 8.81161 0.056216 1.44301
194 1 8.97784 0.636163 12.2271
195 1 8.9445 0.344775 2.46311
196 1 9.28292 13.2139 0.734447
197 1 9.99512 13.3346 1.59674
198 1 10.6415 0.447936 12.9379
199 1 9.983 0.353304 2.48649
200 1 10.4317 13.1987 0.740455
201 1 10.9852 13.1251 1.58271
202 1 11.2247 0.218542 12.1337
203 1 11.1575 0.230848 2.35114
204 1 11.7152 13.0381 1.00559
205 1 12.3237 13.0047 1.71639
206 1 11.759 0.323453 0.0497868
207 1 12.1907 0.22385 2.35413
208 1 12.6956 13.1501 0.800251
209 1 8.42191 1.13918 0.858811
210 1 10.1123 2.14014 1.65318
211 1 8.83486 1.20592 1.73821
212 1 9.60951 0.416698 12.9237
213 1 9.51691 0.924883 0.774197
214 1 10.0302 2.72099 12.0837
215 1 10.0525 1.43988 2.23132
216 1 10.6302 0.812986 0.858927
217 1 11.1053 0.892208 1.7543
218 1 11.7266 1.82847 0.729161
219 1 11.2509 1.55514 2.24335
220 1 11.6413 0.699989 0.929759
221 1 12.2212 0.778839 1.58487
222 1 12.2917 0.144794 12.1291
223 1 12.3004 1.30664 2.47825
224 1 0.607241 13.2001 0.811083
225 1 8.85729 2.21813 1.57932
226 1 8.91268 2.80396 12.1363
227 1 9.45903 2.75712 3.15691
228 1 9.99715 2.74275 2.37571
229 1 9.78684 0.854527 1.60803
230 1 10.1947 2.05587 11.4073
231 1 10.1003 3.30239 1.54771
232 1 10.5693 1.88641 0.790814
233 1 11.22 2.0603 1.48455
234 1 12.3134 2.36992 12.1778
235 1 11.0418 2.60876 2.41467
236 1 11.732 2.49569 12.8669
237 1 12.3114 1.82371 1.64031
238 1 11.7081 3.61943 12.8609
239 1 12.3755 2.47826 2.44637
240 1 12.8111 1.36459 0.0800891
241 1 8.93071 2.80537 2.28592
242 1 9.41576 3.78071 0.133034
243 1 9.00867 3.49617 1.63299
244 1 9.45692 2.69648 0.0180609
245 1 10.7145 3.11258 0.834206
246 1 10.5294 3.69271 12.9255
247 1 10.0803 4.37397 1.64024
248 1 10.1164 3.24826 11.2177
249 1 11.1909 3.73952 2.4016
250 1 12.4418 3.64659 12.1697
251 1 11.2153 4.28804 1.60951
252 1 11.7491 3.99822 0.84897
253 1 12.4248 2.86295 1.55556
254 1 0.0473435 1.81901 1.6923
255 1 12.4037 3.50325 2.31035
256 1 12.9715 2.96879 0.770236
257 1 9.39229 0.422304 3.20982
258 1 9.65023 13.347 4.03973
259 1 10.6995 0.33362 3.28021
260 1 10.6724 13.1169 4.03079
261 1 11.7686 0.260765 3.28367
262 1 11.7754 13.1203 3.94908
263 1 12.8147 0.169815 3.14728
264 1 12.8185 13.1217 4.10611
265 1 8.96577 1.59929 2.57425
266 1 9.46058 1.01516 3.98238
267 1 10.6993 1.29582 3.09585
268 1 10.5554 0.878862 4.03902
269 1 11.7739 1.26644 3.20754
270 1 11.8451 0.786868 4.20557
271 1 12.8608 1.2421 3.3556
272 1 13.0329 0.705677 4.0463
273 1 9.34532 2.1744 3.96742
274 1 9.70269 1.60976 3.17049
275 1 10.5953 2.32505 3.21737
276 1 10.641 1.90213 4.02066
277 1 11.7553 2.42161 3.09953
278 1 11.7518 1.88191 4.04702
279 1 13.0692 2.43357 3.2663
280 1 12.772 1.88626 4.0507
281 1 10.138 3.82985 2.42052
282 1 9.45734 3.90999 3.10817
283 1 13.0268 3.59823 3.24906
284 1 10.6448 3.06656 3.90886
285 1 10.6528 3.59973 3.17343
286 1 11.7451 2.87417 3.88871
287 1 11.7913 3.65355 3.23174
288 1 12.8133 2.99484 3.97484
289 1 0.0260192 4.22849 1.57433
290 1 0.40802 4.79496 12.94
291 1 0.0430562 4.70193 2.34638
292 1 0.619951 4.21434 0.716463
293 1 1.14504 4.37971 1.69781
294 1 1.59552 5.05781 0.0386844
295 1 1.14505 4.89817 2.47321
296 1 1.67333 4.41399 0.868455
297 1 2.34639 4.62292 1.71732
298 1 2.90272 5.09946 0.0697166
299 1 2.15278 5.05066 2.54691
300 1 2.72093 4.63235 0.806675
301 1 3.35286 4.66021 1.74
302 1 4.02647 5.38293 0.0489617
303 1 3.43127 5.2352 2.52536
304 1 3.96633 4.2543 12.8629
305 1 13.4227 5.28306 1.55771
306 1 0.524357 5.94114 0.0125308
307 1 13.4119 5.74636 2.44295
308 1 0.620446 5.30671 0.793849
309 1 1.1325 5.41891 1.70228
310 1 1.69615 6.10111 0.00491936
311 1 1.25503 6.01802 2.45648
312 1 1.63626 5.59589 0.865385
313 1 2.20734 5.58571 1.56952
314 1 2.80484 6.26126 0.0631315
315 1 2.3392 6.18051 2.49575
316 1 2.88119 5.78076 0.892758
317 1 3.39834 5.71462 1.74694
318 1 3.9867 6.54455 0.100892
319 1 3.38379 6.37912 2.4633
320 1 3.95028 5.81602 0.877472
321 1 0.0417515 6.3398 1.72071
322 1 0.634986 7.01032 12.8658
323 1 0.0396038 7.49585 1.53164
324 1 0.590489 6.40047 0.814121
325 1 1.04609 6.5616 1.72242
326 1 1.78372 7.11551 12.9361
327 1 1.13635 7.08338 2.54165
328 1 1.58807 6.64396 0.880334
329 1 2.24266 6.84619 1.63177
330 1 2.79943 7.3107 0.00684635
331 1 2.3381 7.28358 2.46365
332 1 2.75298 6.86336 0.905068
333 1 3.45639 6.94485 1.5394
334 1 4.01496 7.63379 12.9408
335 1 3.30068 7.43473 2.44351
336 1 3.94416 7.04837 0.765729
337 1 13.3739 8.60955 1.61776
338 1 0.404809 8.02123 0.061732
339 1 0.591833 8.28153 3.31346
340 1 0.686033 7.55923 0.885691
341 1 1.15572 7.68677 1.75202
342 1 1.57449 8.35481 12.9065
343 1 0.969995 8.27441 2.4071
344 1 1.70702 7.72143 0.690884
345 1 2.14278 7.83526 1.58289
346 1 2.9053 8.46593 12.8938
347 1 2.01282 8.42715 2.34932
348 1 2.78596 7.99264 0.780946
349 1 3.27854 8.03618 1.68995
350 1 3.99242 8.6858 0.0406587
351 1 2.70509 9.7646 3.21562
352 1 3.91198 8.15671 0.921809
353 1 0.489996 4.79364 3.2588
354 1 0.465001 4.26192 4.1138
355 1 1.64353 5.06841 3.40765
356 1 1.65734 4.47123 3.99616
357 1 2.79915 5.08517 3.17389
358 1 3.41032 4.78906 4.79951
359 1 3.43626 4.07184 2.44854
360 1 3.92188 5.27781 3.41113
361 1 0.561411 5.95952 3.21729
362 1 0.599725 5.48663 4.08367
363 1 1.73332 6.19227 3.2441
364 1 1.68064 5.67463 4.06528
365 1 2.90147 6.33717 3.35364
366 1 2.81169 5.67713 4.03033
367 1 3.97977 6.47994 3.1826
368 1 3.87973 5.91066 3.9508
369 1 0.589439 6.52345 3.98994
370 1 1.08087 6.64118 4.83699
371 1 1.63778 7.44622 3.26723
372 1 1.5593 6.84948 3.9374
373 1 2.84699 7.59614 3.31841
374 1 2.66612 7.0031 4.02163
375 1 5.08373 7.65354 3.14333
376 1 3.34727 6.93274 4.83976
377 1 0.52265 8.70784 4.09321
378 1 0.423422 7.02377 3.10581
379 1 1.71311 8.41343 3.25265
380 1 1.63284 7.88085 4.14543
381 1 3.87933 8.72272 3.24616
382 1 2.72476 8.01902 4.08325
383 1 3.94342 7.60288 3.24132
384 1 3.86714 8.18346 4.059
385 1 3.86954 4.77824 0.860435
386 1 5.22283 5.45361 0.0384305
387 1 4.55 5.3888 2.47528
388 1 5.02197 4.90498 0.705503
389 1 5.58863 5.33768 2.35666
390 1 6.16855 4.92268 0.755064
391 1 6.21315 5.39673 3.24936
392 1 5.65971 4.83042 1.54346
393 1 6.74231 4.77119 1.68823
394 1 6.72442 5.31153 11.9982
395 1 6.70975 5.34416 2.41625
396 1 7.37089 4.69342 0.904086
397 1 7.91767 4.74056 1.62532
398 1 8.25452 5.15281 12.9245
399 1 7.77124 5.33424 2.42623
400 1 8.42821 4.54447 0.78675
401 1 4.55132 5.89409 1.65111
402 1 5.24518 6.51837 12.8808
403 1 4.41042 6.48367 2.38626
404 1 5.02939 6.14944 0.798649
405 1 5.72519 5.98252 1.43871
406 1 6.23031 6.50028 12.926
407 1 6.05827 6.37581 3.25824
408 1 6.27933 5.93061 0.726138
409 1 6.87058 5.92879 1.58362
410 1 7.3275 5.80078 0.743354
411 1 6.59327 6.37898 2.42704
412 1 7.24688 5.23538 12.9002
413 1 8.03866 5.81553 1.56674
414 1 8.48214 6.24751 12.8543
415 1 7.66101 6.33018 2.48283
416 1 8.51587 5.70422 0.678817
417 1 4.54016 6.98585 1.59596
418 1 5.11469 7.67838 12.8161
419 1 4.39272 7.5606 2.39002
420 1 5.08686 7.2019 0.77951
421 1 5.63343 6.4482 2.36917
422 1 6.19599 7.57714 12.9115
423 1 5.59947 7.02123 1.68587
424 1 6.19029 7.13499 0.833254
425 1 6.7292 6.95786 1.43855
426 1 7.3894 7.54964 12.8824
427 1 6.78661 7.39448 2.36523
428 1 7.36095 6.99709 0.648191
429 1 7.774 6.90399 1.58683
430 1 8.32579 6.80716 0.71946
431 1 7.82823 7.45336 2.37287
432 1 8.8207 6.79796 1.66901
433 1 4.46308 8.10561 1.60205
434 1 5.09891 8.73808 0.0750794
435 1 4.37948 8.70937 2.37638
436 1 5.10511 8.22051 0.827059
437 1 5.56231 7.68817 2.38352
438 1 6.17966 8.70776 12.8756
439 1 5.67695 8.22863 1.63338
440 1 6.32019 8.18251 0.754047
441 1 6.74881 8.10241 1.71149
442 1 7.2441 8.59883 12.9266
443 1 6.75354 8.61254 2.54275
444 1 7.32238 8.03432 0.860138
445 1 7.78731 7.98342 1.49633
446 1 8.48789 7.88928 0.818017
447 1 7.85641 9.12828 1.64974
448 1 8.38976 7.49002 12.8406
449 1 5.13351 5.4549 3.25445
450 1 4.48095 4.36373 2.38615
451 1 6.12194 5.87188 4.11308
452 1 6.25744 4.22769 3.28872
453 1 7.20493 5.1573 3.24745
454 1 7.36888 4.61567 4.10139
455 1 8.46747 5.79115 3.88335
456 1 8.53254 3.47569 4.13762
457 1 4.89798 6.03704 4.09466
458 1 4.50972 5.40534 5.7696
459 1 6.04247 7.09422 4.06847
460 1 6.13594 7.49757 3.17262
461 1 7.15691 6.43776 3.31003
462 1 8.42534 6.1039 6.41391
463 1 8.3544 6.32533 3.07999
464 1 7.75531 6.35658 5.75751
465 1 5.06958 8.13852 4.07925
466 1 5.05286 6.61861 3.15724
467 1 6.19889 8.69198 3.10234
468 1 4.88671 7.12718 4.01744
469 1 6.20178 8.17505 3.97332
470 1 7.22107 7.45156 3.29481
471 1 8.22442 7.43533 3.26874
472 1 8.29692 6.80212 4.06816
473 1 5.07409 8.68639 3.35848
474 1 4.45323 8.30534 4.78968
475 1 5.62339 8.25482 4.86046
476 1 6.62973 8.08752 4.88974
477 1 7.38216 8.52685 3.22014
478 1 6.75236 9.31677 4.93978
479 1 7.89321 8.4209 2.28687
480 1 8.4759 7.88682 4.0554
481 1 8.95734 3.91301 2.4439
482 1 9.457 4.9391 12.9445
483 1 9.48941 4.42634 0.77588
484 1 9.48902 4.96606 3.15632
485 1 11.3042 3.09794 1.75009
486 1 10.0836 4.69115 12.1923
487 1 10.0211 6.7121 1.67566
488 1 10.5518 4.79537 0.106616
489 1 10.6223 4.26907 0.829565
490 1 12.2548 4.76178 12.1568
491 1 11.0828 4.80818 2.47563
492 1 11.755 4.71494 0.0257395
493 1 12.3411 4.21024 1.52753
494 1 12.7906 4.64575 0.0516155
495 1 12.3585 4.44519 2.47813
496 1 12.9006 4.03458 0.798789
497 1 9.04614 5.68425 1.65703
498 1 9.59155 6.0926 12.7852
499 1 9.46719 6.07292 3.22768
500 1 9.02016 4.53563 1.57654
501 1 9.51923 5.50176 0.75814
502 1 10.6906 5.93272 0.0135856
503 1 10.6053 6.06883 3.26528
504 1 10.0511 5.46812 1.64081
505 1 10.7067 5.40541 0.868717
506 1 11.2474 5.76565 12.1579
507 1 11.1448 5.41357 1.70126
508 1 11.7554 5.28587 0.767471
509 1 12.3474 5.16837 1.61088
510 1 12.8401 5.89232 0.0150974
511 1 12.8633 5.86914 3.22905
512 1 12.9018 5.27281 0.705012
513 1 8.99669 6.24596 2.36685
514 1 9.56493 7.15673 12.9378
515 1 8.87015 7.30965 2.5196
516 1 9.42626 6.51723 0.841251
517 1 10.1289 6.08699 2.34957
518 1 10.6824 7.0026 12.9375
519 1 10.0555 7.22361 2.37834
520 1 10.4949 6.45705 0.820909
521 1 11.1423 6.53213 1.48635
522 1 11.783 6.87727 0.051712
523 1 11.1894 7.08132 2.43353
524 1 13.0026 6.51889 0.790068
525 1 12.492 6.31615 1.67445
526 1 12.445 6.95247 12.1345
527 1 12.1932 5.70146 2.41766
528 1 12.9108 6.97654 0.0219583
529 1 8.98103 7.82169 1.69606
530 1 10.0834 8.30076 12.162
531 1 8.44474 8.52552 3.33975
532 1 9.53935 7.68965 0.662343
533 1 10.0001 7.74965 1.59611
534 1 10.6037 8.14327 12.9102
535 1 10.2473 8.31022 2.37411
536 1 10.6719 7.47503 0.799079
537 1 11.1346 7.72726 1.73833
538 1 11.6714 7.50315 0.733999
539 1 11.7587 8.14038 3.20495
540 1 11.9165 6.37561 0.994014
541 1 12.1616 7.52714 1.55502
542 1 12.7756 8.08383 0.0511446
543 1 12.9121 8.01793 3.33189
544 1 12.7909 7.56736 0.921212
545 1 8.93775 5.09061 2.38407
546 1 9.69837 3.28176 3.9281
547 1 10.1467 5.00079 2.49772
548 1 10.6786 4.22643 4.03156
549 1 11.7642 4.79813 3.08873
550 1 11.696 4.07581 3.97795
551 1 12.8532 4.72614 3.21055
552 1 12.8162 4.16178 4.04883
553 1 9.52123 6.58932 3.98633
554 1 9.53317 5.57757 4.01858
555 1 10.6053 4.86615 3.35716
556 1 10.5945 5.35824 4.07322
557 1 11.2323 5.97492 2.36735
558 1 11.6744 5.16442 4.09341
559 1 11.6614 5.79299 3.27576
560 1 12.8369 5.22013 3.96128
561 1 9.70045 8.30089 3.14814
562 1 9.49288 7.16176 3.34316
563 1 10.6861 7.14164 3.18856
564 1 10.6147 6.58592 4.11466
565 1 11.7443 6.84818 3.46893
566 1 11.8759 6.24075 4.18671
567 1 12.2126 6.86779 2.33601
568 1 13.3519 7.02013 2.42197
569 1 8.96949 8.36906 2.57545
570 1 8.89884 7.72091 4.85791
571 1 10.9167 8.14995 3.15441
572 1 10.6221 7.71831 4.19055
573 1 12.1318 7.91301 2.51972
574 1 12.3538 8.5796 4.94707
575 1 12.7504 6.91436 3.17336
576 1 12.9008 7.44307 4.13294
577 1 13.3859 8.13486 2.42653
578 1 0.0894987 9.26733 12.237
579 1 0.491279 9.36802 3.29391
580 1 0.54735 8.69633 0.860422
581 1 1.05882 8.84126 1.52271
582 1 1.65207 9.43474 0.0931245
583 1 1.09147 9.37575 2.39937
584 1 1.76319 8.81661 0.916495
585 1 2.24385 9.09582 1.64774
586 1 2.83191 9.4797 12.893
587 1 2.26603 9.6065 2.42572
588 1 2.77705 9.05587 0.768947
589 1 3.31577 9.15438 1.68091
590 1 3.95237 9.83011 0.0524407
591 1 3.29479 8.59929 2.46724
592 1 3.82574 9.22306 0.898501
593 1 0.0648939 9.41617 2.33929
594 1 0.553581 9.86063 0.806044
595 1 13.4319 10.4841 2.4227
596 1 0.690937 9.15638 0.0248593
597 1 1.21306 9.97515 1.55007
598 1 1.71754 10.6641 0.0709426
599 1 1.21476 10.4899 2.41243
600 1 1.76792 10.0154 0.74104
601 1 2.26856 10.1843 1.60344
602 1 2.92145 10.6199 12.9447
603 1 2.87092 10.8387 3.26715
604 1 2.93478 10.1911 0.773475
605 1 3.4432 10.3323 1.61969
606 1 3.9868 10.9167 12.9331
607 1 3.40342 10.9777 2.48318
608 1 3.98222 10.3157 0.804867
609 1 13.4094 10.9943 1.69193
610 1 0.694728 12.1626 0.910171
611 1 0.0133961 11.5849 2.56608
612 1 0.565807 10.3938 12.9252
613 1 0.556802 11.0297 0.668471
614 1 2.80423 11.9614 0.0704555
615 1 1.06175 11.5202 2.40515
616 1 1.05243 10.9923 1.5996
617 1 2.35124 10.7682 2.42263
618 1 2.81665 12.5614 0.822482
619 1 2.33974 11.2563 1.43989
620 1 1.64127 11.2459 0.872669
621 1 3.42793 11.3572 1.57224
622 1 3.93227 12.0361 12.9519
623 1 3.30912 11.9965 2.48599
624 1 4.07179 11.3921 0.729031
625 1 0.0266557 12.0407 1.6033
626 1 0.115848 12.5409 12.1866
627 1 0.00366711 12.6085 2.42552
628 1 0.616984 12.6627 0.0844284
629 1 1.13254 12.1721 1.68461
630 1 1.77293 0.417644 0.206682
631 1 1.24919 12.7317 2.52736
632 1 1.79192 12.277 0.919624
633 1 2.29316 12.4388 1.7371
634 1 1.71071 12.6853 12.9472
635 1 2.27743 13.0661 2.45492
636 1 2.83733 13.083 12.9342
637 1 3.40396 12.3502 1.59973
638 1 3.96369 0.213983 0.871082
639 1 3.90542 13.1389 3.38166
640 1 3.8784 12.6299 0.679699
641 1 0.537738 9.94431 4.06245
642 1 0.522572 7.59551 4.02772
643 1 1.56775 9.57558 3.11375
644 1 1.71074 9.11742 3.91382
645 1 2.71842 8.71438 3.12615
646 1 2.83086 9.05795 4.03152
647 1 3.39891 9.76787 2.40337
648 1 3.98591 9.84396 3.11086
649 1 0.602962 10.4918 3.25178
650 1 0.0124147 9.95021 4.91144
651 1 1.77191 10.6084 3.21234
652 1 1.74877 10.0065 4.07997
653 1 2.83937 10.1781 4.07208
654 1 3.96171 10.4109 3.95303
655 1 4.07995 11.0077 3.15846
656 1 4.46805 10.529 4.9907
657 1 0.606217 11.6221 3.26954
658 1 0.644903 10.989 3.91434
659 1 2.15587 11.7769 2.29
660 1 1.70709 11.7019 3.16661
661 1 2.70145 11.9664 3.22743
662 1 2.89254 11.3842 4.05061
663 1 3.87395 12.062 3.1806
664 1 3.94505 11.5476 4.01227
665 1 0.53596 13.3234 4.08546
666 1 0.55888 12.6772 3.21242
667 1 1.73197 12.7696 3.32872
668 1 1.59124 12.1956 4.09479
669 1 2.86954 12.9295 3.23358
670 1 2.85036 12.484 4.17596
671 1 3.87943 0.309209 4.07326
672 1 3.90644 12.6118 4.17677
673 1 4.5061 9.30507 1.67329
674 1 5.04276 9.80587 0.0323698
675 1 4.50515 9.89653 2.48222
676 1 5.04859 9.38593 0.909522
677 1 5.71471 9.2694 1.60297
678 1 6.22997 11.0083 0.0496235
679 1 5.66326 9.83516 2.39938
680 1 6.23008 9.29127 0.808921
681 1 6.81597 9.23698 1.61768
682 1 7.22853 9.75681 12.9351
683 1 6.79252 9.80831 2.37616
684 1 7.36113 9.13238 0.683594
685 1 8.45053 9.01449 0.777326
686 1 8.51817 9.64467 12.9118
687 1 7.87872 10.2376 1.58757
688 1 8.36709 8.52824 12.8946
689 1 4.58455 10.4253 1.66409
690 1 5.14195 10.9515 12.8415
691 1 4.58109 11.0481 2.41959
692 1 5.15891 10.4559 0.764621
693 1 5.62486 10.5221 1.61085
694 1 5.79316 10.924 12.1357
695 1 5.707 11.0391 2.39789
696 1 6.05971 9.75906 12.8953
697 1 6.31518 10.3552 0.722349
698 1 7.20277 10.8986 0.0601593
699 1 6.88102 10.8948 2.39949
700 1 6.64932 10.3789 1.50987
701 1 7.41876 10.2265 0.765612
702 1 8.39833 10.6804 12.864
703 1 7.85455 10.8099 2.40521
704 1 8.44543 10.1102 0.770601
705 1 4.52485 11.6099 1.60768
706 1 4.9798 12.1353 12.9364
707 1 4.43365 12.2934 2.35137
708 1 5.10222 11.5575 0.772845
709 1 5.63461 11.6265 1.65722
710 1 6.11381 12.0374 0.0518305
711 1 5.65304 12.6763 1.58303
712 1 6.16433 11.544 0.854351
713 1 6.76303 11.5134 1.64489
714 1 7.28302 11.982 0.0123351
715 1 6.59206 12.069 2.41717
716 1 7.38616 11.3944 0.788656
717 1 7.9037 11.377 1.55122
718 1 8.37797 11.8736 12.9449
719 1 7.82932 11.8928 2.6184
720 1 8.36846 11.2375 0.713543
721 1 4.38538 12.5805 1.49021
722 1 5.67415 13.2222 12.1919
723 1 4.42418 0.876392 2.32687
724 1 4.91432 13.2643 0.176752
725 1 5.1381 12.6309 0.865501
726 1 6.07083 0.357079 0.692432
727 1 5.54668 13.2037 2.55837
728 1 6.27335 12.7125 0.81479
729 1 6.81348 12.6703 1.70512
730 1 7.29167 13.1351 12.8849
731 1 6.78525 13.2026 2.53941
732 1 7.2922 12.5601 0.727476
733 1 7.79531 12.4276 1.70538
734 1 8.45501 13.1241 0.066634
735 1 7.81723 13.0153 2.39637
736 1 8.34131 12.5814 0.703003
737 1 5.25006 9.8844 3.20417
738 1 4.95141 9.37212 4.00331
739 1 6.24673 9.89321 3.32276
740 1 6.15396 9.2199 4.05602
741 1 7.84143 9.69916 2.42698
742 1 7.22831 9.17572 4.14933
743 1 8.31871 9.67024 3.14739
744 1 9.05579 8.78952 4.885
745 1 5.08931 10.8376 3.17873
746 1 4.93125 10.3811 4.11378
747 1 6.2459 10.9312 3.09343
748 1 6.12948 10.4265 4.15096
749 1 7.26056 10.8234 3.27757
750 1 7.31335 10.2617 3.9966
751 1 8.37477 10.7214 3.25941
752 1 8.41612 10.1702 4.06136
753 1 5.46679 12.2322 2.48641
754 1 5.02818 12.0027 3.30443
755 1 6.1596 12.1039 3.23099
756 1 6.12981 11.5252 3.97502
757 1 7.25648 11.9786 3.24446
758 1 7.11556 11.3388 4.09146
759 1 8.4706 11.7325 3.24018
760 1 8.37365 11.4008 4.10221
761 1 5.00877 0.410897 4.13499
762 1 5.01285 12.669 3.95568
763 1 6.08138 13.3354 3.24507
764 1 6.2405 12.6617 3.98523
765 1 7.26613 13.1352 3.25677
766 1 7.27834 12.3931 4.0505
767 1 8.44341 12.8733 3.18892
768 1 8.29201 12.3383 4.03863
769 1 8.92324 8.88944 1.6443
770 1 9.51028 8.8962 0.803071
771 1 9.00828 9.49343 2.42584
772 1 9.60405 9.47574 0.0815651
773 1 10.0641 8.78585 1.45906
774 1 10.0687 9.3725 12.0872
775 1 10.0868 9.23977 2.43821
776 1 10.714 8.67399 0.769294
777 1 11.2424 8.5982 1.59738
778 1 11.7411 9.29237 12.7879
779 1 11.2329 9.16162 2.45948
780 1 11.7839 8.6249 0.692189
781 1 12.2546 8.5832 1.65319
782 1 12.9383 9.27033 12.8913
783 1 12.3636 9.12287 2.3734
784 1 12.8532 8.69215 0.782114
785 1 8.9834 10.0034 1.60988
786 1 9.51355 10.5245 0.0217485
787 1 8.85875 10.6227 2.415
788 1 9.63173 10.0082 0.920916
789 1 10.1835 9.84559 1.70983
790 1 11.2708 9.71737 1.57092
791 1 10.1528 10.4354 2.42917
792 1 10.6788 9.32825 0.0557281
793 1 11.9175 9.63389 0.796409
794 1 11.7912 10.2645 0.0407739
795 1 11.6876 10.3355 3.22
796 1 12.9619 9.74221 0.760003
797 1 12.4087 9.81526 1.62724
798 1 12.918 10.3285 12.9018
799 1 12.2866 10.2614 2.39125
800 1 0.0288136 9.87448 1.55669
801 1 8.94966 11.144 1.62156
802 1 9.42498 11.7047 0.0627057
803 1 8.94032 11.7304 2.36213
804 1 9.48119 11.0678 0.858459
805 1 10.0795 11.0423 1.67225
806 1 10.4949 11.5397 0.0233777
807 1 10.0766 11.6406 2.48766
808 1 10.7651 9.88583 0.792082
809 1 10.6173 10.9113 0.784044
810 1 11.62 10.9177 0.782284
811 1 11.116 11.3414 2.37224
812 1 11.2241 10.9298 1.6982
813 1 12.327 10.8397 1.49335
814 1 12.7637 11.3897 0.0896668
815 1 12.3076 11.2586 2.45847
816 1 12.9127 10.8311 0.817054
817 1 8.80649 12.2295 1.5043
818 1 9.68899 12.6678 12.8698
819 1 8.89528 12.8684 2.22355
820 1 9.52219 12.2574 0.949998
821 1 10.0929 12.0667 1.55828
822 1 10.6614 12.594 0.109025
823 1 9.94587 12.7006 2.26892
824 1 10.6882 11.9551 0.78768
825 1 11.3243 11.9799 1.63577
826 1 0.0375671 11.95 11.377
827 1 11.061 12.505 2.47353
828 1 11.8642 11.9927 0.774905
829 1 12.3421 11.8543 1.7014
830 1 11.6816 12.7061 0.107685
831 1 12.2709 12.491 2.48408
832 1 12.9044 12.0352 0.812303
833 1 9.46039 9.49205 3.23708
834 1 10.1048 8.88015 4.8514
835 1 10.628 9.3795 3.28204
836 1 10.6405 8.72471 4.00671
837 1 11.172 10.1611 2.40757
838 1 11.8409 8.56646 4.10483
839 1 12.9472 9.05389 3.15749
840 1 12.8552 8.60559 4.14061
841 1 9.53106 10.5224 3.11476
842 1 9.5034 9.85399 4.06021
843 1 10.5952 10.4176 3.26122
844 1 10.6187 9.82838 4.09945
845 1 11.7442 9.64958 4.03007
846 1 11.8705 9.24628 3.21703
847 1 12.8977 10.2263 3.22583
848 1 12.8809 9.66402 4.03525
849 1 9.5704 11.5406 3.38758
850 1 9.43483 10.9071 4.10964
851 1 10.6567 11.5765 3.23018
852 1 10.4558 10.9175 4.07217
853 1 11.74 11.4096 3.23281
854 1 11.6814 10.8646 3.973
855 1 12.9057 11.507 3.24644
856 1 12.8493 10.7198 3.97962
857 1 9.39715 12.6508 3.19925
858 1 9.48868 12.1928 4.0397
859 1 10.4768 12.7358 3.13688
860 1 10.6663 12.0476 3.98665
861 1 11.7399 12.5275 3.16009
862 1 11.629 11.9579 4.07063
863 1 12.8196 12.6432 3.30804
864 1 12.7913 11.9675 4.01373
865 1 13.4145 13.0625 4.9173
866 1 0.090995 0.29969 5.66987
867 1 1.12706 13.3225 4.93963
868 1 1.11492 0.566387 5.73398
869 1 2.19711 12.8295 5.50105
870 1 2.2588 0.180302 5.04837
871 1 3.24994 0.165377 4.81779
872 1 3.26453 0.751692 5.69555
873 1 0.0588302 0.895541 4.90058
874 1 0.0685089 1.31744 5.77297
875 1 1.17227 0.919167 4.78504
876 1 0.610347 1.64587 6.49724
877 1 2.27016 1.12581 5.0092
878 1 1.73115 1.73474 6.52304
879 1 2.76425 1.23215 4.08871
880 1 3.40035 1.88108 5.59946
881 1 13.4163 1.88603 4.81377
882 1 0.199414 2.49211 5.57168
883 1 1.19004 1.51946 5.66927
884 1 2.33295 2.73295 5.61617
885 1 2.26126 1.72318 5.70836
886 1 1.69201 2.0529 4.09111
887 1 3.33262 3.00663 5.87503
888 1 4.02731 3.15347 6.42551
889 1 0.016188 3.11496 4.84714
890 1 0.148264 3.59927 5.57033
891 1 1.2015 2.68704 5.65684
892 1 1.18956 3.82435 5.66058
893 1 2.21234 3.34493 4.88875
894 1 2.41249 4.07089 5.64911
895 1 3.3139 3.47647 4.86901
896 1 3.43133 4.17597 5.49731
897 1 0.407154 13.2322 7.60898
898 1 0.566321 0.262756 6.72818
899 1 0.746074 12.7458 6.61321
900 1 1.15156 13.424 8.02238
901 1 1.65 0.0314436 7.33603
902 1 1.65781 0.549011 6.43637
903 1 2.36671 0.106278 7.97878
904 1 2.92338 0.20131 7.1667
905 1 3.38358 0.386708 8.11825
906 1 3.37639 0.956888 8.93047
907 1 3.80867 0.830236 6.4495
908 1 3.90193 0.232893 7.20705
909 1 0.127835 0.729346 8.06077
910 1 0.556243 2.10666 7.33531
911 1 0.668084 1.03583 7.19164
912 1 2.30824 1.24535 8.1189
913 1 1.67232 1.16963 7.34593
914 1 2.28835 0.799812 8.81753
915 1 2.6733 1.06067 7.08907
916 1 2.90433 1.71199 6.54676
917 1 2.47535 0.527266 6.10448
918 1 2.91627 0.599042 9.6292
919 1 3.95853 2.6012 7.32559
920 1 3.93779 1.31952 7.27393
921 1 0.135731 1.84994 8.1179
922 1 1.19116 2.17645 8.12945
923 1 1.21744 2.69756 8.99891
924 1 1.22591 1.00119 8.24708
925 1 1.79501 3.2734 7.30429
926 1 1.72844 2.22869 7.34881
927 1 2.31254 2.30425 8.01941
928 1 1.84716 2.79272 6.40638
929 1 2.85728 2.52602 6.80796
930 1 3.46365 1.99454 8.82712
931 1 3.38724 2.85892 8.81902
932 1 3.1686 2.43811 7.75295
933 1 0.0331765 3.05902 8.04172
934 1 0.567209 3.67731 6.58298
935 1 0.71353 2.7154 6.50793
936 1 0.691475 3.18951 7.3782
937 1 1.76585 3.86946 6.39234
938 1 2.19577 3.39086 8.21202
939 1 2.7411 3.39958 7.17782
940 1 2.94487 3.98662 6.3735
941 1 3.30935 3.51732 8.1742
942 1 3.36961 4.1344 8.89573
943 1 4.47666 4.18835 5.59833
944 1 4.02266 1.87762 6.4944
945 1 4.42909 0.183802 4.95775
946 1 4.4908 0.736008 5.63859
947 1 5.59113 0.305334 4.94803
948 1 5.6382 0.92948 5.73393
949 1 6.73293 0.256889 4.94492
950 1 6.73815 0.88673 5.70656
951 1 7.89039 0.0976719 4.6894
952 1 8.38849 0.617813 6.46069
953 1 3.37778 1.24312 4.88248
954 1 3.95366 3.57635 4.11064
955 1 5.56475 1.48607 4.94748
956 1 5.62428 2.11306 5.65352
957 1 6.05096 1.34297 4.07781
958 1 6.6949 3.03671 5.63877
959 1 7.81528 1.24681 4.79137
960 1 7.93892 1.71319 5.62542
961 1 4.43971 1.79407 5.68383
962 1 5.05359 3.68394 7.30467
963 1 5.6912 2.7427 4.7961
964 1 5.06744 3.0867 6.51793
965 1 6.75359 2.4453 4.84619
966 1 6.7187 4.22073 5.66027
967 1 7.82699 2.31151 4.87907
968 1 7.89671 2.97971 5.61524
969 1 5.59077 3.82117 4.85424
970 1 3.96848 4.18225 6.30019
971 1 5.20715 4.92058 4.04014
972 1 5.59093 4.92441 4.90128
973 1 6.72406 3.63836 4.8662
974 1 6.69624 4.79265 4.89567
975 1 7.89391 4.14954 5.5841
976 1 8.46137 3.97106 6.53361
977 1 4.48099 0.138254 7.99724
978 1 4.95532 0.863421 6.48275
979 1 5.05726 0.320205 7.27124
980 1 5.56112 0.260812 7.98164
981 1 6.1778 0.879044 6.58776
982 1 6.25817 0.246991 7.41097
983 1 6.7761 12.9828 8.86739
984 1 7.78889 0.653791 5.56786
985 1 6.71386 0.348902 8.24558
986 1 7.91406 0.201567 8.1623
987 1 8.44175 0.149996 7.21922
988 1 8.6306 12.9075 6.44401
989 1 4.45109 1.34614 8.1096
990 1 5.06474 1.98884 6.3937
991 1 5.10789 1.41783 7.28001
992 1 5.6328 1.42999 8.09057