data.lammps (converted from cfg to data.lammps)
    
2298  atoms
1  atom types
0.0   13.4375  xlo xhi
0.0   13.4375  ylo yhi
0.0   12.952  zlo zhi
0.0  0.0 0.0 xy xz yz
    
    
    
Atoms
  
1 1 0.0617766 0.0373911 1.66115
2 1 0.482187 0.892258 0.0979272
3 1 0.0146247 1.25224 1.60733
4 1 1.03221 0.517661 1.70983
5 1 1.65073 0.275829 0.804069
6 1 1.09875 0.331648 11.3651
7 1 0.940954 0.752501 2.53748
8 1 2.74806 1.51408 0.880946
9 1 2.08323 0.394245 1.72661
10 1 2.73125 0.472554 0.979324
11 1 2.27016 0.931587 2.44137
12 1 2.85521 0.957064 0.0396198
13 1 3.3909 13.2917 2.47746
14 1 4.04622 0.895458 0.0661551
15 1 3.52519 2.04337 2.52337
16 1 3.35932 0.39531 1.66358
17 1 12.9153 1.1854 0.760879
18 1 1.15359 2.39034 11.3557
19 1 0.0180278 1.81387 2.47449
20 1 0.574954 1.4346 1.04653
21 1 1.53087 1.35021 0.956631
22 1 0.703157 2.40639 0.854829
23 1 1.12826 2.45482 1.73647
24 1 1.65136 1.98147 0.156871
25 1 2.02595 1.58253 1.68885
26 1 2.09883 2.1787 12.2748
27 1 2.41104 1.97495 2.43268
28 1 2.9394 3.1611 3.20609
29 1 3.32863 0.965758 2.43476
30 1 3.9297 1.4692 0.879919
31 1 5.05718 1.84836 3.31592
32 1 5.65308 0.0651442 1.6187
33 1 12.9865 2.52415 0.647608
34 1 0.407625 3.07369 0.0467688
35 1 0.0900777 2.87127 2.42047
36 1 13.3294 2.41372 1.65982
37 1 2.15705 2.70047 1.79807
38 1 1.60503 3.23001 12.9016
39 1 1.11598 3.06915 2.51188
40 1 2.74843 2.60198 0.90787
41 1 3.24745 1.56989 1.60971
42 1 2.99371 3.26471 12.926
43 1 2.38471 3.18588 2.46571
44 1 3.3425 2.61585 1.64747
45 1 2.83546 2.00102 3.26555
46 1 3.92978 2.57325 0.893524
47 1 2.91072 2.69298 3.95533
48 1 3.91631 1.92979 0.033832
49 1 0.695207 3.4732 0.858144
50 1 1.2895 3.56139 1.62465
51 1 13.4146 3.88782 2.38976
52 1 1.00226 4.06964 2.45523
53 1 0.546285 1.93923 0.0863373
54 1 1.75859 4.24648 0.0879168
55 1 1.74743 3.96484 3.17281
56 1 1.78404 3.71747 0.759938
57 1 2.22419 3.92257 1.73449
58 1 2.8283 4.42215 0.00323797
59 1 2.29718 4.3839 2.50515
60 1 2.80994 3.73919 0.835298
61 1 3.2816 3.72251 1.5878
62 1 4.53822 4.01949 12.0942
63 1 2.82548 4.19728 3.24436
64 1 3.89193 3.65425 0.833047
65 1 13.2844 0.611324 2.32916
66 1 0.434569 0.757875 3.31069
67 1 1.68561 0.823364 3.30908
68 1 1.76991 0.299418 4.07474
69 1 2.81822 0.991546 3.26608
70 1 2.75748 0.398821 4.00675
71 1 3.9753 1.89063 3.3608
72 1 3.9454 0.836252 3.21149
73 1 0.692675 1.804 3.15926
74 1 0.623695 1.34253 4.00368
75 1 1.10729 1.6897 2.31798
76 1 1.81475 1.41473 4.03018
77 1 1.67013 1.98878 2.99879
78 1 2.28366 2.20402 5.63359
79 1 4.14759 2.65563 4.00377
80 1 4.53411 1.95886 2.49739
81 1 0.587223 2.87772 3.31152
82 1 0.774891 2.2717 4.06671
83 1 1.82002 2.90446 3.18216
84 1 1.12355 2.65407 4.96322
85 1 1.78075 2.38604 4.09869
86 1 3.38143 2.66257 4.80691
87 1 3.51256 3.20136 2.43188
88 1 4.34467 2.50064 4.91594
89 1 0.57317 4.13336 3.22573
90 1 0.647311 3.43088 3.96532
91 1 1.63533 3.49027 3.97619
92 1 1.23049 3.62643 4.92103
93 1 2.70334 4.87147 4.14254
94 1 2.69321 3.80722 4.08159
95 1 3.92958 4.27824 3.23672
96 1 4.05403 3.1103 3.22983
97 1 4.41621 0.189313 1.64964
98 1 4.90916 0.102869 0.918448
99 1 4.30445 1.39117 1.72769
100 1 5.50044 1.23208 1.64902
101 1 5.66268 0.683791 2.47439
102 1 6.24333 0.703327 0.0341906
103 1 5.07576 12.9381 3.2053
104 1 6.64069 13.344 1.61085
105 1 6.73072 1.05218 1.66216
106 1 7.17124 0.322664 0.181056
107 1 6.6336 0.449909 2.44968
108 1 7.84839 13.1757 1.58012
109 1 7.2052 13.2596 0.969452
110 1 7.90026 0.976775 11.308
111 1 7.75982 0.382247 2.24444
112 1 8.49573 13.2136 0.832902
113 1 5.00451 0.666962 0.0760453
114 1 4.38755 1.92085 12.1666
115 1 3.97871 1.43424 4.13741
116 1 5.01819 1.28485 0.82122
117 1 6.12496 1.70109 0.00578597
118 1 6.25266 2.17115 0.894874
119 1 5.65997 1.77077 2.47166
120 1 5.08596 1.81232 0.0274567
121 1 6.17217 1.14875 1.04121
122 1 6.70258 1.38424 12.3018
123 1 6.73888 1.5716 2.44627
124 1 7.34574 1.01561 0.71568
125 1 7.87892 1.02632 1.6429
126 1 8.53248 1.32402 0.0338971
127 1 7.86642 1.4446 2.43672
128 1 7.94983 1.53882 12.24
129 1 4.51282 2.43193 1.68967
130 1 4.97886 2.92264 0.108041
131 1 4.60308 3.13028 2.40024
132 1 4.94323 2.29748 0.877165
133 1 5.59747 2.37154 1.5621
134 1 6.12703 2.64672 12.8215
135 1 5.14323 2.86759 3.18841
136 1 6.84607 2.31683 1.7598
137 1 7.89999 2.56041 2.63775
138 1 7.91048 2.51691 12.0288
139 1 6.83386 2.75021 2.52787
140 1 7.3181 1.59049 12.9439
141 1 7.26501 1.99966 0.845782
142 1 8.22315 2.44838 0.0479
143 1 7.87931 3.04686 1.75563
144 1 7.86451 2.07396 1.56888
145 1 4.47946 3.6199 1.53214
146 1 5.09881 3.94761 12.9165
147 1 4.44205 4.75803 1.55451
148 1 5.12947 3.54233 0.901305
149 1 5.71706 3.65745 1.56302
150 1 6.17104 3.82965 0.141173
151 1 5.59271 4.04696 2.41142
152 1 6.22223 3.13708 0.721587
153 1 7.2504 3.77786 0.0108953
154 1 6.70301 3.89714 12.0486
155 1 6.76303 3.32895 1.61818
156 1 7.31227 3.26687 0.799944
157 1 7.76322 3.76719 2.28327
158 1 8.46395 3.51886 12.8817
159 1 8.48119 3.70772 3.14534
160 1 8.35475 3.19757 0.844363
161 1 4.96278 0.712306 3.26201
162 1 4.47622 13.1091 2.44258
163 1 6.10898 0.451895 3.30459
164 1 6.19899 13.3049 4.08085
165 1 7.34177 0.465838 3.13863
166 1 7.20836 13.3597 3.90999
167 1 8.35158 0.207287 3.05705
168 1 8.3474 13.1021 4.06454
169 1 5.05611 1.28134 4.00963
170 1 4.51325 1.40766 4.94444
171 1 6.25329 1.69964 3.25435
172 1 6.14621 2.07135 4.06473
173 1 7.26403 1.45056 3.30074
174 1 7.06397 0.976461 4.159
175 1 8.31198 1.49107 3.29095
176 1 8.38195 0.838469 3.84231
177 1 5.014 3.53799 4.04066
178 1 5.13513 2.49486 4.2718
179 1 5.75619 2.9355 2.29517
180 1 6.12519 2.79083 3.22099
181 1 7.24303 2.69539 3.36537
182 1 7.36941 2.07955 4.10555
183 1 8.4454 2.74175 3.29478
184 1 8.39144 2.02994 4.04258
185 1 5.04401 4.05834 3.15999
186 1 4.44734 3.65766 4.89364
187 1 6.69241 3.89808 2.60822
188 1 6.16324 3.22242 3.94975
189 1 7.4393 3.80358 3.20423
190 1 7.35648 3.24001 4.05912
191 1 8.27321 4.67156 3.23136
192 1 7.83683 3.10307 4.9425
193 1 8.97907 13.1092 1.78308
194 1 8.92512 0.158495 12.0545
195 1 8.92173 0.3702 2.36449
196 1 9.49675 13.0913 0.793765
197 1 10.0787 13.0494 1.48453
198 1 10.6233 0.322083 12.9399
199 1 10.1515 0.1226 2.34188
200 1 10.6091 13.1567 0.614706
201 1 11.1059 13.2168 1.50485
202 1 11.1554 0.264181 12.0454
203 1 11.1939 0.396155 2.35825
204 1 11.6977 13.1515 0.757395
205 1 12.3445 13.3608 1.51993
206 1 11.8107 0.202029 0.0266557
207 1 12.2564 0.489015 2.41542
208 1 12.9841 0.0294905 0.834545
209 1 8.31749 0.768034 0.776022
210 1 10.1812 1.9087 1.64834
211 1 8.97333 0.800282 1.4953
212 1 9.47857 0.145293 12.756
213 1 9.59928 0.704306 0.753607
214 1 10.2411 2.61081 12.148
215 1 10.1244 1.32996 2.26147
216 1 10.5434 1.01598 0.785493
217 1 11.1083 0.751542 1.41541
218 1 11.7704 2.03952 0.791455
219 1 11.2156 1.3778 2.28556
220 1 11.8137 0.897835 0.678358
221 1 12.2646 0.969947 1.52832
222 1 12.3161 0.506524 12.06
223 1 12.3834 1.53623 2.45879
224 1 0.600066 0.223914 0.835877
225 1 9.08757 1.73219 1.51963
226 1 8.9756 2.62127 12.265
227 1 9.43278 2.45163 2.9465
228 1 10.1123 2.59426 2.4615
229 1 10.013 0.703065 1.65946
230 1 10.1247 1.87635 11.4352
231 1 10.142 2.9831 1.5586
232 1 10.7168 1.89805 0.731822
233 1 11.2331 2.0278 1.59268
234 1 12.5618 2.83566 12.4098
235 1 11.2403 2.46496 2.42292
236 1 11.9721 2.61026 12.9018
237 1 12.3968 1.96861 1.50171
238 1 11.7695 3.73732 0.00607909
239 1 12.3601 2.63938 2.25161
240 1 12.9555 1.81417 0.0852502
241 1 8.80405 2.3764 2.10576
242 1 9.52899 3.63284 0.121382
243 1 9.07117 3.12048 1.56393
244 1 9.54353 2.41163 12.8068
245 1 10.7556 3.12603 0.798289
246 1 10.5644 3.48202 0.0252362
247 1 10.1413 4.09897 1.54249
248 1 10.2088 2.97899 11.3243
249 1 11.155 3.55731 2.51523
250 1 12.4838 3.98775 12.0711
251 1 11.2951 4.25625 1.69254
252 1 11.7226 4.28069 0.841372
253 1 12.2848 3.28055 1.65475
254 1 13.4358 3.48789 1.56752
255 1 12.336 3.87853 2.60225
256 1 12.8645 3.41968 0.822451
257 1 9.50565 0.310124 3.13691
258 1 9.39801 13.2208 4.02862
259 1 10.7395 0.40465 3.28754
260 1 10.5008 13.1843 3.85449
261 1 11.8268 0.332911 3.26011
262 1 11.6416 13.163 4.07904
263 1 12.9066 0.569876 3.23421
264 1 12.9369 13.293 3.97661
265 1 8.92159 1.42255 2.54806
266 1 9.49521 0.842144 3.88693
267 1 10.7655 1.39339 3.10715
268 1 10.6021 0.935419 4.02939
269 1 11.8177 1.41365 3.15511
270 1 11.835 0.825627 4.02053
271 1 13.0138 1.82746 3.32124
272 1 12.9414 1.15731 3.99453
273 1 9.49596 1.92199 3.84853
274 1 9.64618 1.32862 3.09868
275 1 10.5846 2.4288 3.19991
276 1 10.6828 1.98075 3.99248
277 1 11.7605 2.5655 3.25719
278 1 11.8061 1.90835 3.95105
279 1 12.8253 2.86238 3.17851
280 1 12.9574 2.30524 4.10159
281 1 10.011 3.66957 2.28586
282 1 9.66941 3.56411 3.25409
283 1 12.9569 3.89421 3.2682
284 1 10.6941 3.0419 4.01265
285 1 10.6156 3.64279 3.2272
286 1 11.7548 3.11919 3.86279
287 1 11.7658 3.80674 3.31392
288 1 13.0118 3.37088 4.07962
289 1 0.010444 4.54677 1.55981
290 1 0.495037 5.25934 12.8647
291 1 0.131988 5.08744 2.30496
292 1 0.550573 4.58877 0.764676
293 1 1.20328 4.69759 1.57893
294 1 1.71571 5.41429 12.8979
295 1 1.27072 5.0381 2.40273
296 1 1.56708 4.96735 0.704869
297 1 2.2363 4.97705 1.61307
298 1 2.83617 5.53225 0.0425709
299 1 2.28916 5.39787 2.49645
300 1 2.72185 4.9238 0.723316
301 1 3.24349 4.97949 1.64652
302 1 3.96179 5.34237 12.9114
303 1 3.47017 5.37382 2.49334
304 1 4.04115 4.24006 0.00619813
305 1 13.3044 5.6412 1.502
306 1 0.575626 6.36745 12.9385
307 1 13.4259 6.14099 2.4225
308 1 0.594484 5.71735 0.761629
309 1 1.05848 5.83975 1.65818
310 1 1.72368 6.3887 12.9428
311 1 1.20924 6.31485 2.22434
312 1 1.70695 5.99937 0.92707
313 1 2.38139 6.1103 1.59851
314 1 2.86442 6.59617 12.8994
315 1 2.27211 6.41595 2.40547
316 1 2.85523 6.08254 0.777024
317 1 3.48377 5.98318 1.75424
318 1 4.11613 6.48218 0.0425318
319 1 3.47662 6.47697 2.5418
320 1 3.84845 5.86755 0.755488
321 1 0.0524757 6.76331 1.58368
322 1 0.603845 7.43559 0.050661
323 1 0.0447544 7.19937 2.36119
324 1 0.586485 6.78286 0.832121
325 1 1.25177 7.01557 1.7623
326 1 1.67532 7.52855 0.0306403
327 1 1.01183 7.53716 2.43459
328 1 1.70392 6.98917 0.815432
329 1 2.26082 7.15916 1.61417
330 1 2.83635 7.7454 12.8911
331 1 2.24362 7.57532 2.47742
332 1 2.7918 7.22439 0.71788
333 1 3.30118 7.07049 1.62344
334 1 3.89988 7.73053 0.102116
335 1 3.30818 7.56913 2.43333
336 1 3.81763 7.00864 0.703979
337 1 13.2994 7.91328 1.70027
338 1 0.584468 8.47386 0.0219281
339 1 0.165132 8.40321 2.47364
340 1 0.50952 7.93425 0.932436
341 1 1.1858 8.11692 1.47624
342 1 1.65846 8.84654 0.0764643
343 1 1.05638 8.6681 2.49595
344 1 1.74507 8.11805 0.738554
345 1 2.36672 8.24201 1.67837
346 1 2.79696 8.88919 0.0539089
347 1 2.08954 8.67987 2.46105
348 1 2.7887 8.32602 0.748593
349 1 3.41084 8.19099 1.56898
350 1 3.91757 8.80107 12.9463
351 1 2.85834 9.94511 3.22156
352 1 4.0432 8.14032 0.947836
353 1 0.565325 5.31425 3.12256
354 1 0.542651 4.60038 3.95599
355 1 1.63778 5.30835 3.32662
356 1 1.66543 4.62052 3.89375
357 1 2.78072 5.27515 3.28881
358 1 3.40211 4.80215 4.97169
359 1 3.36994 4.19739 2.36698
360 1 3.88639 5.22989 3.2746
361 1 0.748505 6.40117 3.15715
362 1 0.501326 5.74864 3.94129
363 1 1.6652 6.44734 3.21331
364 1 1.72798 5.9319 4.07326
365 1 2.82396 6.4745 3.15135
366 1 3.01642 6.00383 3.98714
367 1 4.11584 6.33968 3.25069
368 1 4.01307 5.84512 4.11612
369 1 0.663145 6.78156 4.08911
370 1 1.20022 6.92928 4.87787
371 1 1.61024 7.61667 3.12427
372 1 1.79295 7.09911 3.99637
373 1 2.75231 7.81638 3.23139
374 1 2.82331 7.1094 3.85803
375 1 5.08636 7.40348 3.36602
376 1 3.42654 7.12772 4.82742
377 1 0.43066 9.04205 3.79328
378 1 0.521191 7.38987 3.34415
379 1 1.55504 8.74421 3.27239
380 1 1.75037 8.09134 4.06751
381 1 4.01437 8.82928 3.18878
382 1 2.76509 8.206 4.07921
383 1 3.99802 7.68079 3.3574
384 1 3.84119 8.32841 4.0709
385 1 3.79666 4.78121 0.863586
386 1 5.15622 5.04804 0.0475836
387 1 4.58325 5.41765 2.30011
388 1 4.90871 4.57856 0.804433
389 1 5.61706 5.09011 2.44811
390 1 6.29156 4.46798 0.730773
391 1 6.12051 5.02685 3.23472
392 1 5.64573 4.67285 1.48341
393 1 6.75736 4.24747 1.52906
394 1 6.58157 4.9661 12.0678
395 1 6.67549 4.88469 2.22018
396 1 7.35575 4.38644 0.816477
397 1 7.92041 4.46038 1.65471
398 1 8.49658 4.75126 12.9246
399 1 7.69691 4.92781 2.47742
400 1 8.37117 4.16768 0.784071
401 1 4.51194 5.87337 1.49043
402 1 5.14933 6.19246 12.8697
403 1 4.66371 6.38723 2.52269
404 1 5.03855 5.79281 0.773243
405 1 5.70732 5.75632 1.53147
406 1 6.25329 6.14544 12.8818
407 1 6.1141 6.07958 3.11712
408 1 6.16109 5.67944 0.803729
409 1 6.7765 5.49488 1.67276
410 1 7.33366 5.31381 0.765787
411 1 6.9095 6.04467 2.31639
412 1 7.2758 4.766 12.7301
413 1 7.98717 5.53876 1.61817
414 1 8.37335 5.88094 0.0204035
415 1 7.96425 5.89126 2.56788
416 1 8.42429 5.24286 0.72998
417 1 4.39796 6.98964 1.65865
418 1 5.09189 7.43649 0.0245032
419 1 4.3249 7.48619 2.46198
420 1 4.909 6.91758 0.902124
421 1 5.66479 6.21604 2.32566
422 1 6.15626 7.33458 0.254863
423 1 5.53883 6.94532 1.72408
424 1 6.18638 6.7476 0.830166
425 1 6.6886 6.66273 1.64547
426 1 7.283 7.07323 0.00650834
427 1 6.74001 7.19754 2.44806
428 1 7.25203 6.61915 0.842138
429 1 7.88433 6.48651 1.50396
430 1 8.59331 6.48265 0.82187
431 1 7.85412 6.95192 2.4632
432 1 9.17335 6.30471 1.60566
433 1 4.5995 8.05296 1.73965
434 1 5.09777 8.58624 12.9314
435 1 4.56424 8.53582 2.57083
436 1 5.00137 8.03266 0.792017
437 1 5.44359 7.53164 2.48581
438 1 6.18516 8.4832 0.0679998
439 1 5.56732 8.00625 1.5845
440 1 6.23935 7.95796 0.893882
441 1 6.67911 7.69093 1.60355
442 1 7.19059 8.28451 12.8431
443 1 6.65725 8.31723 2.46238
444 1 7.40909 7.76518 0.619454
445 1 7.71775 7.56867 1.59376
446 1 8.35635 7.55116 0.780131
447 1 7.93784 8.82273 1.63439
448 1 8.41957 7.04482 12.9322
449 1 4.97413 5.0885 3.17074
450 1 4.48129 4.19012 2.35168
451 1 6.25839 5.72161 4.11628
452 1 6.13988 3.94069 3.34902
453 1 7.135 4.89063 3.2641
454 1 7.18393 4.34863 4.16895
455 1 8.34484 5.31147 4.0238
456 1 8.50259 3.1766 4.12107
457 1 5.15209 5.59637 3.99888
458 1 4.47735 5.30323 5.65302
459 1 6.25147 6.74885 3.89733
460 1 6.15682 7.25259 3.1111
461 1 7.26845 6.02934 3.21836
462 1 8.57028 5.74003 6.54461
463 1 8.49136 5.88212 3.29811
464 1 7.80122 5.94885 5.81674
465 1 4.96573 7.95024 4.01801
466 1 5.13369 6.31235 3.39161
467 1 6.29767 8.3561 3.44793
468 1 4.97381 6.79323 4.17839
469 1 6.10416 7.72011 4.00639
470 1 7.33868 7.1731 3.30394
471 1 8.40341 6.97559 3.29966
472 1 8.41859 6.47731 4.15975
473 1 5.21328 8.67686 3.37225
474 1 4.47889 8.07228 4.86985
475 1 5.65501 7.99758 4.88364
476 1 6.76637 7.71159 4.8455
477 1 7.40081 8.25918 3.21716
478 1 6.69425 8.90846 4.79186
479 1 7.78647 8.15347 2.24042
480 1 8.47991 7.6934 4.03586
481 1 8.95232 3.58883 2.46962
482 1 9.53654 4.684 0.0259442
483 1 9.46536 4.23495 0.871651
484 1 9.43716 4.75576 3.19354
485 1 11.2398 3.08291 1.64683
486 1 10.1251 4.74551 12.1002
487 1 10.2128 6.47729 1.7403
488 1 10.5891 4.81917 12.8565
489 1 10.6304 4.17328 0.737405
490 1 12.2072 4.98076 12.0809
491 1 11.1462 4.65283 2.50589
492 1 11.8773 4.92685 0.019472
493 1 12.3816 4.31361 1.66977
494 1 12.9926 5.00689 12.9079
495 1 12.3701 4.95455 2.42143
496 1 12.7792 4.58896 0.738996
497 1 8.97137 5.27735 1.58591
498 1 9.50019 5.7672 12.8139
499 1 9.57648 5.8605 3.32254
500 1 8.89968 4.19876 1.63948
501 1 9.61656 5.36425 0.902212
502 1 10.7731 5.92219 0.0419948
503 1 10.708 6.00178 3.16671
504 1 10.1899 5.18532 1.63886
505 1 10.6843 5.27074 0.769499
506 1 11.2425 5.99009 11.9809
507 1 11.2781 5.32008 1.61925
508 1 11.8097 5.52142 0.743205
509 1 12.2619 5.4456 1.60754
510 1 12.8603 6.16052 12.9346
511 1 12.9524 6.18685 3.18013
512 1 12.8207 5.66735 0.750445
513 1 9.02198 5.81708 2.44345
514 1 9.56462 6.89836 12.9448
515 1 8.90878 7.0296 2.30394
516 1 9.62509 6.35719 0.7097
517 1 10.0968 5.80543 2.38151
518 1 10.5946 7.00083 0.0121385
519 1 10.064 7.09337 2.53623
520 1 10.6843 6.38253 0.932158
521 1 11.3079 6.46646 1.76102
522 1 11.6937 7.05126 12.9299
523 1 11.273 7.01407 2.42995
524 1 12.8299 6.66794 0.863953
525 1 12.348 6.82024 1.79526
526 1 12.4424 7.24675 12.1578
527 1 12.3542 6.1237 2.29736
528 1 12.9725 7.26028 0.042849
529 1 9.06886 7.46503 1.44483
530 1 10.0962 8.14196 12.0403
531 1 8.39918 8.11499 3.17599
532 1 9.73516 7.47191 0.830123
533 1 10.0972 7.57276 1.74409
534 1 10.6291 8.09663 12.8548
535 1 9.96122 8.28661 2.28491
536 1 10.7482 7.48024 0.913301
537 1 11.2169 7.66639 1.70703
538 1 11.7576 7.56784 0.748984
539 1 11.166 8.19485 2.53996
540 1 11.8205 6.5455 0.842936
541 1 12.2438 7.88757 1.58525
542 1 12.9463 8.42617 0.100733
543 1 13.1581 8.30768 3.27829
544 1 12.9643 7.63669 0.800822
545 1 8.8703 4.74246 2.51207
546 1 9.69017 2.9437 3.95274
547 1 10.0337 4.62633 2.41657
548 1 10.6624 4.20338 4.00986
549 1 11.7611 4.99757 3.11453
550 1 11.8044 4.33573 4.06513
551 1 12.927 4.9926 3.21023
552 1 12.7762 4.52278 4.02018
553 1 9.5558 6.4588 4.1457
554 1 9.39772 5.30237 4.07544
555 1 10.5535 4.75571 3.23779
556 1 10.6199 5.36125 3.96418
557 1 11.1701 5.81032 2.44163
558 1 11.7683 5.41824 4.0771
559 1 11.892 6.06355 3.27714
560 1 12.7884 5.59052 4.00722
561 1 9.41488 7.94585 3.27829
562 1 9.45015 6.80449 3.19262
563 1 10.66 7.18195 3.19916
564 1 10.7055 6.58118 3.94114
565 1 11.8759 7.15701 3.24564
566 1 11.8022 6.60312 4.01328
567 1 12.4228 7.38604 2.46448
568 1 12.9324 7.2704 3.28929
569 1 8.87449 7.99679 2.3711
570 1 9.06866 7.64502 4.71707
571 1 10.4975 8.23752 3.19163
572 1 10.743 7.68024 4.00043
573 1 12.4511 8.36269 2.56453
574 1 11.7966 8.92396 4.04035
575 1 12.8224 7.80587 4.12775
576 1 12.32 7.81791 4.87771
577 1 0.0286684 9.01191 1.56385
578 1 0.0159499 9.62243 12.171
579 1 0.556365 9.71508 3.19953
580 1 0.524622 9.10705 0.860811
581 1 1.15638 9.22836 1.63562
582 1 1.76324 9.96415 0.111423
583 1 1.00774 9.82064 2.372
584 1 1.68408 9.35062 0.926436
585 1 2.34729 9.3479 1.64668
586 1 2.75611 9.92205 0.00785091
587 1 2.22589 9.80478 2.48934
588 1 2.83955 9.38878 0.847957
589 1 3.44828 9.26401 1.70808
590 1 3.8983 9.75533 0.1011
591 1 3.40594 8.65153 2.52738
592 1 3.9513 9.2728 0.936529
593 1 13.3477 9.44253 2.40064
594 1 0.493804 10.2235 0.80452
595 1 13.3231 10.7129 2.42907
596 1 0.615718 9.59802 0.0240323
597 1 1.02013 10.4258 1.64383
598 1 1.56895 11.0793 0.124901
599 1 1.09545 10.9076 2.49718
600 1 1.68018 10.4774 0.779357
601 1 2.17576 10.4455 1.66469
602 1 2.82996 11.082 0.0840573
603 1 2.7464 10.9832 3.27263
604 1 2.79081 10.5395 0.955187
605 1 3.37699 10.4772 1.76221
606 1 3.94112 10.8101 0.0847688
607 1 3.28791 11.0629 2.43924
608 1 3.81137 10.401 0.927161
609 1 13.3987 11.1784 1.60091
610 1 0.557545 12.4686 0.8826
611 1 0.0496697 11.8175 2.49975
612 1 0.544338 10.787 0.0312928
613 1 0.540222 11.334 0.794824
614 1 2.84235 12.2359 0.047106
615 1 1.09039 11.9875 2.54885
616 1 1.03747 11.5162 1.6301
617 1 2.15601 11.0571 2.45566
618 1 2.8307 12.905 0.821346
619 1 2.28189 11.7137 1.64507
620 1 1.63791 11.6343 0.979755
621 1 3.45247 11.5326 1.5835
622 1 3.89073 11.9917 0.0346142
623 1 3.41479 12.1245 2.43867
624 1 3.86516 11.4928 0.857312
625 1 0.0173752 12.3268 1.55469
626 1 0.0608325 12.946 12.1919
627 1 13.4229 12.883 2.44803
628 1 0.629036 13.0704 0.170349
629 1 1.24145 12.6134 1.68348
630 1 1.75068 0.979732 12.9268
631 1 1.12005 13.1326 2.38145
632 1 1.78571 12.7057 0.798277
633 1 2.31161 12.7721 1.72831
634 1 1.84172 13.2766 12.8941
635 1 2.27387 13.3695 2.57184
636 1 2.9432 13.3999 0.105733
637 1 3.38028 12.6665 1.6319
638 1 3.80362 0.33449 0.823515
639 1 3.95404 13.1938 3.34744
640 1 3.95011 12.6472 0.746982
641 1 0.413288 10.1512 3.88994
642 1 0.69224 8.17832 3.9039
643 1 1.74012 9.8734 3.20993
644 1 1.72586 9.27428 4.10199
645 1 2.75048 8.86159 3.1897
646 1 2.73824 9.33527 4.03485
647 1 3.35845 9.84818 2.37813
648 1 3.92126 9.84477 3.22753
649 1 0.52283 10.9077 3.30547
650 1 13.3435 10.1052 4.93848
651 1 1.63483 10.8025 3.30724
652 1 1.5149 10.2686 4.02416
653 1 2.65396 10.4275 4.08097
654 1 3.85723 10.3994 4.08278
655 1 3.9694 10.9429 3.19759
656 1 4.44226 10.2733 4.87806
657 1 0.469373 12.0256 3.38025
658 1 0.58638 11.3708 4.24052
659 1 2.1265 12.1675 2.57197
660 1 1.69214 12.0265 3.37305
661 1 2.79199 12.1024 3.20732
662 1 2.74214 11.573 4.06971
663 1 3.9652 12.0835 3.32514
664 1 3.8329 11.4003 4.10343
665 1 0.680024 0.144081 4.14691
666 1 0.49103 13.0901 3.21096
667 1 1.62809 13.1652 3.27513
668 1 1.64998 12.6525 4.14175
669 1 2.76099 13.1888 3.36997
670 1 2.73334 12.5626 4.13639
671 1 3.91739 0.43255 4.10844
672 1 3.86014 12.6251 4.05988
673 1 4.61217 9.17429 1.73061
674 1 5.00785 9.72867 12.8797
675 1 4.54647 9.77975 2.39119
676 1 5.0575 9.19642 0.690791
677 1 5.60313 9.10498 1.62173
678 1 6.10335 10.7147 12.8093
679 1 5.67505 9.57814 2.42772
680 1 6.23997 9.01256 0.829915
681 1 6.74737 8.84687 1.60723
682 1 7.42806 9.42138 12.8532
683 1 6.76542 9.45327 2.37979
684 1 7.31695 8.76848 0.843776
685 1 8.33951 8.76529 0.798057
686 1 8.45212 9.26882 12.8163
687 1 7.756 9.88288 1.5011
688 1 8.58433 8.19044 0.0238388
689 1 4.44451 10.2333 1.57714
690 1 4.97642 10.8867 0.0453922
691 1 4.43354 10.908 2.42643
692 1 5.05168 10.2182 0.792586
693 1 5.66817 10.2022 1.58438
694 1 5.4906 10.6732 12.085
695 1 5.45176 10.6843 2.2738
696 1 6.1286 9.54107 0.0286497
697 1 6.15064 10.1871 0.655066
698 1 7.2079 10.6047 0.0508457
699 1 6.5579 10.5481 2.5147
700 1 6.73854 9.98371 1.52803
701 1 7.19829 9.94241 0.623812
702 1 8.31186 10.2154 12.8167
703 1 7.74055 10.4489 2.37924
704 1 8.43586 9.85839 0.848444
705 1 4.51031 11.4611 1.62915
706 1 5.13185 11.9828 12.9175
707 1 4.45174 12.0213 2.46521
708 1 5.06422 11.3562 0.836067
709 1 5.67686 11.4023 1.60866
710 1 6.20842 11.7631 0.0280218
711 1 5.59576 12.3904 1.67377
712 1 6.13081 11.2921 0.778497
713 1 6.78098 10.9605 1.62695
714 1 7.40222 11.6879 12.9307
715 1 6.7307 11.6167 2.3184
716 1 7.21395 11.0862 0.86831
717 1 7.9037 11.0332 1.64145
718 1 8.45966 11.406 0.0343058
719 1 7.86693 11.5566 2.43855
720 1 8.32186 10.8478 0.761715
721 1 4.48125 12.5496 1.59804
722 1 5.70555 13.0417 12.0518
723 1 4.57036 0.740398 2.41358
724 1 4.96064 13.0911 12.8595
725 1 5.06946 12.4437 0.761148
726 1 6.01817 0.147831 0.75761
727 1 5.56824 12.9007 2.43351
728 1 6.17493 12.4034 0.735916
729 1 6.63194 12.2659 1.73998
730 1 7.40162 12.8179 0.0183466
731 1 6.89406 12.7787 2.47273
732 1 7.21126 12.1656 0.911796
733 1 7.79899 12.0502 1.60344
734 1 8.37528 12.6316 0.0323538
735 1 7.86642 12.6791 2.47022
736 1 8.37674 12.0769 0.86029
737 1 5.04722 9.71512 3.24401
738 1 4.83376 9.09523 4.07884
739 1 6.15126 9.51583 3.21238
740 1 6.05578 8.98852 4.08119
741 1 7.78207 9.27458 2.48254
742 1 7.37176 8.9257 4.17324
743 1 8.33734 9.18604 3.23863
744 1 8.97346 8.73335 4.99459
745 1 5.03979 10.722 3.26419
746 1 4.93296 10.1815 4.13829
747 1 5.98478 10.624 3.23292
748 1 6.1619 10.0557 4.12183
749 1 7.23615 10.5295 3.20146
750 1 7.22432 9.98332 3.90182
751 1 8.35166 10.2664 3.22475
752 1 8.2499 9.78859 4.10389
753 1 5.56824 11.75 2.4752
754 1 5.00203 11.7867 3.25644
755 1 6.23945 11.7389 3.23094
756 1 6.02568 11.1386 4.01024
757 1 7.35164 11.6241 3.27845
758 1 7.16289 11.0927 4.0496
759 1 8.46498 11.3267 3.19418
760 1 8.27735 10.8003 4.07641
761 1 5.06876 0.0126134 3.99644
762 1 5.05458 12.3199 4.01612
763 1 6.16658 12.8372 3.13187
764 1 6.15904 12.2393 4.01787
765 1 7.35989 12.7374 3.34654
766 1 7.18584 12.0852 4.12302
767 1 8.40776 12.5603 3.27895
768 1 8.36756 11.9604 4.11258
769 1 8.91197 8.54522 1.47686
770 1 9.53555 8.67067 0.760165
771 1 8.98023 9.15427 2.47221
772 1 9.64967 9.09295 12.9387
773 1 10.0919 8.69021 1.53472
774 1 10.1313 9.22208 12.133
775 1 10.1556 9.33577 2.41309
776 1 10.711 8.48937 0.801367
777 1 11.2611 8.76309 1.63955
778 1 11.8555 9.42764 12.8624
779 1 11.1429 9.37405 2.31521
780 1 11.6844 8.82935 0.741805
781 1 12.3001 8.89842 1.64212
782 1 12.8817 9.43667 12.9431
783 1 12.2756 9.28797 2.49661
784 1 12.816 8.88614 0.832305
785 1 8.85225 9.78723 1.75729
786 1 9.5275 10.3004 12.8004
787 1 8.93094 10.3921 2.42728
788 1 9.39088 9.76655 0.657884
789 1 9.90556 9.70221 1.46539
790 1 10.9675 9.8925 1.60505
791 1 10.0162 10.3149 2.36444
792 1 10.7075 9.19593 0.112089
793 1 11.7502 9.88624 0.937585
794 1 11.8374 10.4654 0.0933155
795 1 11.6944 10.5423 3.33254
796 1 12.9456 10.0219 0.767868
797 1 12.2404 9.97673 1.62752
798 1 12.8588 10.5883 0.029779
799 1 12.2033 10.6315 2.20259
800 1 13.3354 10.0985 1.71067
801 1 8.94459 10.8636 1.62531
802 1 9.53387 11.3944 0.0142108
803 1 9.05404 11.4686 2.47501
804 1 9.49994 10.8032 0.827545
805 1 10.0032 10.851 1.53187
806 1 10.5694 11.5034 12.7826
807 1 10.1055 11.5843 2.43921
808 1 10.6075 9.77725 0.738077
809 1 10.6333 10.9892 0.827713
810 1 11.5621 10.9608 0.841517
811 1 11.3212 11.5272 2.35903
812 1 11.0365 10.8227 1.74461
813 1 12.2534 11.1808 1.45906
814 1 12.8789 11.7104 0.0109303
815 1 12.4995 11.6841 2.53796
816 1 12.911 11.1915 0.798828
817 1 8.97616 11.8848 1.61285
818 1 9.43966 12.5562 12.888
819 1 8.91894 12.4389 2.36544
820 1 9.408 11.9842 0.722727
821 1 10.1053 11.975 1.62909
822 1 10.5628 12.4705 0.041556
823 1 10.1819 12.5586 2.45229
824 1 10.6209 11.9569 0.898426
825 1 11.2181 12.0608 1.64993
826 1 13.4352 12.3565 11.2289
827 1 11.2164 12.7417 2.47289
828 1 11.7194 12.1532 0.778543
829 1 12.3399 12.1715 1.71722
830 1 11.7762 12.6911 12.7626
831 1 12.1713 12.8637 2.2511
832 1 12.8622 12.3527 0.712847
833 1 9.53903 9.09807 3.10615
834 1 9.98073 8.69342 4.86139
835 1 10.5594 9.27288 3.33936
836 1 10.6523 8.63283 4.19954
837 1 11.2538 10.3619 2.5743
838 1 11.7142 8.36535 3.14941
839 1 12.7512 9.64522 3.20544
840 1 12.7935 8.93723 3.83452
841 1 9.45101 10.3543 3.2691
842 1 9.43068 9.8046 4.06995
843 1 10.567 10.4602 3.13958
844 1 10.5638 9.87975 4.01245
845 1 11.5652 10.0264 4.17743
846 1 11.6606 9.47622 3.21605
847 1 12.7087 10.6138 3.18916
848 1 12.8076 10.0473 4.19742
849 1 9.51762 11.509 3.32844
850 1 9.43005 10.944 4.18543
851 1 10.6683 11.4549 3.20534
852 1 10.5589 10.9602 4.06487
853 1 11.7719 11.6314 3.0946
854 1 11.7585 11.1584 4.07355
855 1 12.8943 11.7207 3.3931
856 1 12.9258 11.0235 4.07774
857 1 9.47993 12.657 3.12617
858 1 9.52807 12.1426 3.8928
859 1 10.7621 12.5234 3.29042
860 1 10.6301 11.9639 4.0863
861 1 11.9054 12.6163 3.30124
862 1 11.743 12.1428 4.18566
863 1 12.8169 12.9344 3.17569
864 1 12.8815 12.2489 4.0482
865 1 13.3898 0.164597 4.80269
866 1 13.4355 0.536678 5.75909
867 1 1.13514 0.162699 4.93224
868 1 1.06322 0.718275 5.76685
869 1 2.21313 13.0789 5.70793
870 1 2.26134 0.309192 5.03504
871 1 3.34834 0.304514 4.84589
872 1 3.38352 0.856704 5.60686
873 1 13.4303 1.19352 4.8512
874 1 0.0591813 1.68791 5.69146
875 1 1.03943 1.21672 5.00514
876 1 0.558139 1.80249 6.32095
877 1 2.22217 0.911564 5.72965
878 1 1.68119 2.13272 6.45691
879 1 2.80508 1.57017 4.14921
880 1 3.38387 2.02929 5.73038
881 1 0.0920551 2.3757 4.80636
882 1 13.3788 2.85524 5.58186
883 1 1.16344 1.94261 5.57613
884 1 2.10818 3.19792 5.86114
885 1 2.11138 1.35105 4.92006
886 1 2.37552 2.60749 4.881
887 1 3.21315 3.11993 5.72513
888 1 3.84644 3.1915 6.36272
889 1 0.165617 3.58988 4.84334
890 1 0.0320318 3.89223 5.65746
891 1 1.20808 3.07918 5.87194
892 1 0.991288 4.23831 5.70517
893 1 2.30132 3.64847 4.95704
894 1 2.24629 4.3673 5.65425
895 1 3.44051 3.68366 4.92063
896 1 3.28648 4.23691 5.71818
897 1 13.3439 0.118775 8.12957
898 1 0.518114 0.666684 6.68695
899 1 0.45693 0.0883577 7.28546
900 1 1.0274 0.343636 8.07244
901 1 1.65406 0.273436 7.29463
902 1 1.74063 0.939741 6.45965
903 1 2.11602 0.467442 8.10443
904 1 2.86375 0.37953 7.38076
905 1 3.36818 0.43378 8.23988
906 1 3.41016 1.08067 8.8584
907 1 3.92988 0.938131 6.60981
908 1 3.88064 0.363939 7.28854
909 1 0.0627581 1.24246 8.15948
910 1 0.611836 2.44955 7.2978
911 1 0.553055 1.46865 7.20822
912 1 2.19192 1.73392 8.10532
913 1 1.57208 1.42829 7.29502
914 1 2.18435 1.01023 8.81619
915 1 2.65759 1.35506 7.36935
916 1 2.81541 1.84721 6.42205
917 1 2.8255 0.834985 6.55003
918 1 2.87431 0.952094 9.71518
919 1 4.09273 2.65712 7.28944
920 1 3.87837 1.52224 7.37927
921 1 0.0945673 2.38243 8.25395
922 1 1.30376 2.51656 8.2443
923 1 1.20681 3.05824 8.93239
924 1 1.08947 1.36223 8.10455
925 1 1.72499 3.48656 7.25486
926 1 1.72586 2.55624 7.2381
927 1 2.37838 2.66181 8.15463
928 1 2.68894 3.16385 6.58089
929 1 2.81958 2.49255 7.1018
930 1 3.42345 2.08576 8.94907
931 1 3.47046 3.00495 8.99671
932 1 3.33751 2.69075 7.94318
933 1 0.0607454 3.36927 8.08183
934 1 0.567916 4.01698 6.6124
935 1 0.607656 2.88933 6.37981
936 1 0.644656 3.44277 7.31288
937 1 1.62728 4.08016 6.50666
938 1 2.31597 3.69387 7.95139
939 1 2.93046 3.90705 7.23462
940 1 2.87335 4.40389 6.43792
941 1 3.48569 3.65921 8.08732
942 1 3.31159 4.15473 8.86419
943 1 4.55715 4.19229 5.55733
944 1 3.92059 2.03667 6.52748
945 1 4.68211 0.14348 4.71472
946 1 4.43356 0.819345 5.67212
947 1 5.69257 13.4294 4.93099
948 1 5.61407 0.644067 5.69882
949 1 6.78406 0.0958254 4.99188
950 1 6.57594 0.975933 5.13121
951 1 7.72937 13.1748 4.75525
952 1 8.22724 0.13986 6.38232
953 1 3.32719 1.54542 4.9024
954 1 3.88712 3.68483 4.02599
955 1 5.54696 1.0845 4.83958
956 1 5.59255 1.87389 5.69971
957 1 6.14951 0.98774 4.08882
958 1 6.8082 2.84957 5.65774
959 1 7.86342 0.856963 4.69224
960 1 7.83742 1.39821 5.63042
961 1 4.4512 2.11602 5.74021
962 1 5.01009 3.51389 7.18659
963 1 5.62666 2.28356 4.95268
964 1 5.17879 2.88507 6.49346
965 1 6.60782 2.12775 4.85305
966 1 6.93747 3.86354 5.72298
967 1 7.84737 2.06861 4.93632
968 1 7.92397 2.49975 5.73254
969 1 5.60818 3.51829 4.84945
970 1 4.05598 4.36119 6.37031
971 1 4.95474 4.58535 4.03494
972 1 5.68194 4.4587 4.90981
973 1 6.73384 3.24665 4.78238
974 1 6.69346 4.3273 4.93987
975 1 8.04476 3.70935 5.67202
976 1 8.52369 3.60176 6.54545
977 1 4.43257 0.215744 8.10344
978 1 4.95833 0.651325 6.47644
979 1 5.03519 0.102637 7.17011
980 1 5.39479 0.0261627 8.05588
981 1 6.1479 0.527019 6.36653
982 1 6.10194 13.3762 7.28962
983 1 6.63974 12.6248 8.82732
984 1 7.82814 0.364866 5.56257
985 1 6.6227 13.2622 7.96819
986 1 7.76506 13.1414 8.0734
987 1 8.29059 13.0154 7.23746
988 1 8.43763 12.5003 6.51566
989 1 4.51454 1.24143 8.08115
990 1 5.02107 1.69435 6.41334
991 1 5.04971 1.23046 7.27965