data.lammps (converted from cfg to data.lammps)
    
2298  atoms
1  atom types
0.0   13.4375  xlo xhi
0.0   13.4375  ylo yhi
0.0   12.952  zlo zhi
0.0  0.0 0.0 xy xz yz
    
    
    
Atoms
  
1 1 13.2224 13.227 1.62156
2 1 0.513459 0.362303 12.9394
3 1 13.4169 0.461906 2.35243
4 1 0.490767 13.3653 0.831787
5 1 1.00693 13.3643 1.59784
6 1 1.6268 0.39848 0.0588904
7 1 1.07314 0.412765 2.38406
8 1 1.71708 0.00292352 0.922835
9 1 2.30504 0.235934 1.62272
10 1 2.83432 0.698239 0.0739382
11 1 2.13382 0.672626 2.41938
12 1 2.92263 0.234214 0.893785
13 1 3.45989 0.327605 1.72166
14 1 3.98247 0.81254 12.8908
15 1 3.3277 0.855896 2.51695
16 1 4.00979 0.329727 0.773558
17 1 13.3943 0.989482 1.65857
18 1 0.493367 1.51133 0.0162816
19 1 0.118169 1.66366 2.41811
20 1 0.56719 1.00429 0.838712
21 1 1.07351 1.11356 1.70145
22 1 1.68592 1.6592 0.00265877
23 1 1.16954 1.53961 2.58141
24 1 1.57271 0.99703 0.752146
25 1 2.09113 1.40181 1.62823
26 1 2.98561 1.87929 0.14858
27 1 2.3945 1.75529 2.51433
28 1 2.66354 1.25699 0.806683
29 1 3.23332 1.48519 1.58548
30 1 3.96871 1.86713 0.083396
31 1 4.01934 2.12118 3.15147
32 1 3.86172 1.31829 0.978354
33 1 0.13213 2.16188 1.55605
34 1 0.525308 2.70229 0.0789391
35 1 0.0179518 2.652 2.37987
36 1 0.768211 2.12256 0.881284
37 1 1.23451 2.19889 1.84237
38 1 1.75757 2.74938 12.9073
39 1 1.18726 2.73614 2.61428
40 1 1.76434 2.20336 0.870048
41 1 2.23583 2.51492 1.77018
42 1 2.89308 2.98839 12.8826
43 1 2.37908 3.02578 2.63695
44 1 2.81521 2.48371 0.847833
45 1 3.29776 2.43818 1.66087
46 1 3.88872 3.08194 0.033659
47 1 3.30041 3.00919 2.4992
48 1 3.89627 2.47329 0.747442
49 1 0.109959 3.26791 1.68038
50 1 0.581634 3.78712 0.0655336
51 1 0.04673 3.84763 2.48251
52 1 0.624183 3.21203 0.874572
53 1 1.19084 3.28007 1.73816
54 1 1.65279 3.81629 0.0737618
55 1 1.1927 3.88223 2.48836
56 1 1.68451 3.27653 0.762193
57 1 2.264 3.58597 1.60746
58 1 2.76098 4.04525 12.9284
59 1 2.33708 4.14555 2.43518
60 1 2.84179 3.52709 0.883741
61 1 3.37422 3.57632 1.66585
62 1 3.92538 4.20345 0.0141697
63 1 3.40811 4.15461 2.31692
64 1 3.91612 3.57679 0.980456
65 1 0.411811 0.422139 3.21834
66 1 0.623423 13.2018 4.05995
67 1 1.52075 0.377454 3.35044
68 1 1.82305 13.3841 4.00718
69 1 2.66564 0.728643 3.26559
70 1 2.83948 0.239342 3.98587
71 1 3.87563 0.901479 3.31589
72 1 3.80723 0.307455 4.08248
73 1 0.464494 1.42921 3.25942
74 1 0.525531 0.964176 4.10863
75 1 1.78204 1.69525 3.28021
76 1 1.53166 1.14753 3.9319
77 1 3.00328 1.97979 3.20614
78 1 2.70153 1.39245 4.07291
79 1 4.01267 2.57847 4.01411
80 1 3.93514 1.46152 3.98349
81 1 0.646097 2.56965 3.30087
82 1 0.479715 2.0273 4.0213
83 1 1.87921 2.74645 3.36584
84 1 1.65245 2.22714 4.19186
85 1 2.88276 2.52668 3.86177
86 1 3.25548 2.43747 4.7585
87 1 3.74765 3.12946 3.34024
88 1 4.51899 2.54745 4.90215
89 1 0.598526 3.70612 3.16066
90 1 0.633649 3.23795 3.99995
91 1 1.79553 4.01599 3.2097
92 1 1.63276 3.44836 3.89591
93 1 2.92487 4.14653 3.28398
94 1 2.73688 3.47572 3.96002
95 1 3.96467 4.20196 3.25432
96 1 4.17019 3.7662 4.3735
97 1 4.48733 0.336187 1.70017
98 1 5.03158 0.920672 12.8179
99 1 4.37884 1.05119 2.35747
100 1 5.07517 0.444461 0.750309
101 1 5.70469 0.365211 1.60203
102 1 6.20765 0.78712 12.9179
103 1 5.40186 0.842813 2.34521
104 1 6.12957 0.333758 0.795116
105 1 6.80608 0.177951 1.64849
106 1 7.33401 0.595382 0.0275214
107 1 6.66218 0.74411 2.47811
108 1 7.22628 0.135982 0.840414
109 1 7.93894 13.344 1.73556
110 1 8.32508 0.389205 12.923
111 1 7.86674 0.515887 2.54656
112 1 8.31052 0.0517716 0.945671
113 1 4.55397 1.56507 1.5954
114 1 5.0265 1.94013 12.9447
115 1 3.59937 1.89373 2.40931
116 1 5.04139 1.47382 0.821466
117 1 5.7138 1.44292 1.66156
118 1 6.17983 2.06092 0.025681
119 1 5.50862 2.02568 2.40086
120 1 6.11741 1.46359 0.708254
121 1 6.7435 1.28897 1.53778
122 1 7.25925 1.70796 12.9061
123 1 6.75416 1.8653 2.45259
124 1 7.233 1.29846 0.808982
125 1 7.81725 1.11233 1.71696
126 1 8.30016 1.52018 12.942
127 1 7.89742 1.63603 2.40357
128 1 8.36745 1.04316 0.895734
129 1 4.45387 2.50338 1.68139
130 1 5.04897 3.17499 0.0507349
131 1 4.32716 3.02059 2.38141
132 1 5.07665 2.56981 0.79577
133 1 5.56963 2.61331 1.56908
134 1 6.10884 3.20226 12.8584
135 1 5.52277 3.10021 2.34645
136 1 6.14377 2.61666 0.859468
137 1 6.70973 2.42997 1.64981
138 1 7.17315 2.76024 12.9185
139 1 6.67228 2.9641 2.46673
140 1 7.37169 2.36235 0.880788
141 1 7.82953 2.26157 1.57184
142 1 8.28785 2.69243 0.0425941
143 1 7.8731 2.72195 2.42741
144 1 8.37492 2.06326 0.8243
145 1 4.49252 3.67682 1.60015
146 1 5.03517 4.30598 0.00378963
147 1 4.50643 4.27154 2.32478
148 1 5.12204 3.81165 0.779977
149 1 5.6534 3.77488 1.5548
150 1 6.2617 4.12568 12.8525
151 1 5.60544 4.36051 2.30461
152 1 6.28794 3.66664 0.794298
153 1 7.30765 3.44677 0.768344
154 1 7.46163 3.84433 0.0715015
155 1 6.7741 3.56023 1.73708
156 1 7.85352 3.35397 1.65843
157 1 7.87349 3.91652 2.44159
158 1 8.64902 3.7928 12.8034
159 1 8.62072 3.89556 3.28441
160 1 8.3938 3.27397 0.759378
161 1 4.9328 0.9132 3.18373
162 1 4.96409 0.417377 4.0618
163 1 6.08723 0.722413 3.10093
164 1 6.14536 0.320904 3.98037
165 1 7.3216 0.818712 3.27217
166 1 7.17872 0.0593231 3.91167
167 1 8.34308 0.477633 3.41575
168 1 8.16655 13.3009 3.98707
169 1 4.95619 2.04016 3.01675
170 1 5.05857 1.55555 3.89276
171 1 6.13615 1.80687 3.1201
172 1 6.04423 1.45204 3.98924
173 1 7.24288 1.81918 3.2841
174 1 7.08553 1.1222 4.07258
175 1 8.45826 1.59131 3.25673
176 1 8.36416 1.03597 4.16526
177 1 4.95939 3.19025 3.02455
178 1 5.0941 2.67502 3.92812
179 1 6.05973 3.04947 3.1425
180 1 6.14044 2.58708 3.88753
181 1 7.23644 2.86938 3.1588
182 1 7.18589 2.24469 4.0673
183 1 8.47334 2.84034 3.13719
184 1 8.35237 2.1804 3.95892
185 1 5.06023 3.65972 4.00881
186 1 4.61352 4.30159 5.55959
187 1 6.64298 4.12344 2.49217
188 1 6.30741 3.68644 3.98626
189 1 7.38108 4.06486 3.14634
190 1 7.30489 3.49469 3.87923
191 1 8.47089 4.40328 4.006
192 1 7.71857 3.4274 4.76653
193 1 9.05067 13.207 1.58513
194 1 9.44295 0.273695 0.187474
195 1 8.94662 0.37996 2.30318
196 1 9.56059 13.1343 0.777975
197 1 10.0617 13.3958 1.78414
198 1 10.5796 0.34375 12.8791
199 1 10.0157 0.40755 2.68933
200 1 10.4527 13.2347 0.955606
201 1 11.1578 13.1321 1.59078
202 1 11.531 0.325046 0.00103679
203 1 11.1161 0.2689 2.53693
204 1 11.6347 13.1208 0.765775
205 1 12.2166 13.0242 1.70125
206 1 12.7904 0.250721 0.124869
207 1 12.2105 0.215646 2.43996
208 1 12.7042 13.1335 0.848115
209 1 9.04694 1.00877 1.59354
210 1 9.32311 1.4561 12.8903
211 1 8.97354 1.43121 2.54392
212 1 9.56698 0.892226 0.743064
213 1 10.069 1.04707 1.68869
214 1 10.6722 1.43202 0.0333926
215 1 10.0833 1.48197 2.55705
216 1 10.5138 0.867155 0.794854
217 1 11.1281 0.822929 1.5872
218 1 11.785 1.38799 0.0819026
219 1 11.2162 1.36102 2.44035
220 1 11.6916 0.693853 0.872093
221 1 12.2816 0.771689 1.7447
222 1 12.9665 1.42069 0.123549
223 1 12.2654 1.42014 2.41309
224 1 12.8477 0.811453 0.88566
225 1 8.97934 2.04525 1.59297
226 1 9.5576 2.60296 0.114276
227 1 9.10143 2.64719 2.32473
228 1 9.43787 2.03098 0.772484
229 1 10.0624 2.02658 1.53227
230 1 10.604 2.59938 12.9458
231 1 10.0837 2.52363 2.44429
232 1 10.6939 2.05179 0.798252
233 1 11.1928 1.86904 1.68145
234 1 11.7616 2.59341 0.109801
235 1 11.0731 2.4331 2.51122
236 1 11.7024 1.87363 0.810308
237 1 12.3116 1.857 1.60321
238 1 12.7909 2.41304 0.0809245
239 1 12.3377 2.46399 2.42513
240 1 12.8909 2.03475 1.01283
241 1 8.93596 3.17801 1.57248
242 1 9.55971 3.78004 12.9222
243 1 8.98431 3.88221 2.26001
244 1 9.57117 3.28446 0.855073
245 1 10.2006 3.06687 1.54934
246 1 10.6729 3.77043 12.9325
247 1 10.1 3.60542 2.38995
248 1 10.6967 3.22027 0.830974
249 1 11.2557 2.94976 1.74772
250 1 11.8021 3.67724 0.0461579
251 1 11.2923 3.54887 2.48083
252 1 11.7724 3.07752 0.887848
253 1 12.4301 3.03274 1.6357
254 1 12.9028 3.72407 0.0543572
255 1 12.4193 3.60331 2.4275
256 1 12.9103 3.149 0.824979
257 1 9.39201 0.452598 3.30056
258 1 9.36445 13.2993 4.05986
259 1 10.6181 0.144389 3.35693
260 1 10.6891 13.1994 4.18132
261 1 11.7432 0.228924 3.33232
262 1 11.8132 13.0364 4.13635
263 1 12.7967 0.223497 3.15
264 1 12.9687 13.17 4.11122
265 1 9.5928 1.62825 3.3058
266 1 9.49413 1.05856 4.12631
267 1 10.6792 1.43308 3.33145
268 1 10.5687 0.821506 3.95984
269 1 11.699 1.35273 3.33383
270 1 11.7052 0.763349 4.12502
271 1 12.7878 1.37488 3.09128
272 1 12.872 0.829478 3.92339
273 1 9.46021 2.77097 3.16355
274 1 9.43765 2.15668 4.01779
275 1 10.5753 2.57206 3.39813
276 1 10.504 1.96459 4.14897
277 1 11.8189 2.42005 3.18986
278 1 11.7826 1.9393 4.0962
279 1 12.9369 2.53317 3.19161
280 1 12.8725 1.87425 4.01076
281 1 9.64548 3.80058 3.20022
282 1 9.47944 3.24647 4.04842
283 1 10.6852 3.62233 3.16314
284 1 10.6039 3.08576 4.09652
285 1 11.8739 3.53492 3.23975
286 1 11.8102 3.01602 3.96721
287 1 12.8814 3.63072 3.25525
288 1 12.9466 3.012 4.0461
289 1 0.0098092 4.27709 1.60829
290 1 0.510288 4.90877 0.00872413
291 1 0.0400506 4.95572 2.32659
292 1 0.627674 4.37391 0.825444
293 1 1.20631 4.35769 1.51212
294 1 1.6525 5.11205 0.06404
295 1 1.18144 4.92389 2.23668
296 1 1.7377 4.51595 0.733189
297 1 2.30683 4.66522 1.68879
298 1 2.798 5.21163 12.7788
299 1 2.27324 5.28087 2.47129
300 1 2.80224 4.61894 0.810584
301 1 3.3466 4.80677 1.5933
302 1 3.95264 5.32271 12.9184
303 1 3.46008 5.27736 2.53043
304 1 3.84235 4.66156 0.76545
305 1 13.418 5.44298 1.56718
306 1 0.491756 6.09127 0.0252197
307 1 13.3953 6.01653 2.47107
308 1 0.569726 5.50404 0.850838
309 1 1.1624 5.5964 1.64572
310 1 1.53991 6.21302 12.9061
311 1 1.07341 6.15915 2.41057
312 1 1.68896 5.60746 0.906513
313 1 2.35883 5.74374 1.57821
314 1 2.67749 6.37463 0.022355
315 1 2.18748 6.30345 2.40804
316 1 2.72246 5.72584 0.627553
317 1 3.34457 5.86284 1.52898
318 1 3.8102 6.39081 12.9099
319 1 3.29344 6.28991 2.35739
320 1 3.86175 5.79659 0.717087
321 1 13.3848 6.51902 1.64459
322 1 0.638803 7.18365 0.0137694
323 1 13.3834 7.1693 2.44282
324 1 0.346099 6.72036 0.84022
325 1 1.12528 6.59259 1.45419
326 1 1.66297 7.35456 12.8837
327 1 0.977405 7.24371 2.31237
328 1 1.68423 6.76528 0.769038
329 1 2.12569 6.84494 1.65087
330 1 2.79122 7.42881 12.8773
331 1 2.13605 7.47411 2.45681
332 1 2.77505 6.90933 0.890921
333 1 3.39232 6.9207 1.67547
334 1 3.93781 7.59263 12.9262
335 1 3.2238 7.61144 2.31446
336 1 3.86868 6.99529 0.671362
337 1 0.0311917 7.66067 1.58276
338 1 0.597204 8.2506 0.0139215
339 1 13.2692 8.25694 2.43884
340 1 0.681449 7.73682 0.749855
341 1 1.23399 7.84171 1.62994
342 1 1.72641 8.45725 12.9058
343 1 0.966381 8.42504 2.36307
344 1 1.71355 7.87783 0.783465
345 1 2.33436 8 1.67649
346 1 2.90272 8.57345 0.0674408
347 1 2.224 8.51903 2.57093
348 1 2.79681 7.84902 0.807507
349 1 3.38849 8.15283 1.50878
350 1 3.92943 8.71008 0.0238225
351 1 2.8002 9.59767 3.30494
352 1 4.00986 8.05093 0.758985
353 1 0.577979 4.90676 3.14811
354 1 0.499621 4.34261 4.02566
355 1 1.56679 5.07159 3.16334
356 1 1.68061 4.45383 4.08185
357 1 2.87042 5.2488 3.15869
358 1 2.82351 4.68644 3.96476
359 1 4.08208 5.27249 3.2803
360 1 3.98165 4.77827 4.10063
361 1 0.67384 6.05181 3.21317
362 1 0.682398 5.42843 3.93256
363 1 1.80918 6.04028 3.39772
364 1 1.74822 5.5217 4.17855
365 1 2.79714 6.35205 3.18556
366 1 2.89437 5.73546 4.07747
367 1 3.96214 6.44108 3.03447
368 1 3.89946 6.07487 3.87466
369 1 0.492406 7.10644 3.28446
370 1 0.565439 6.48424 4.18074
371 1 1.60227 7.1749 3.10768
372 1 1.74779 6.75163 3.97334
373 1 2.97146 7.33069 3.21061
374 1 2.82201 6.83521 4.08974
375 1 5.03197 7.63464 3.17513
376 1 3.42538 6.92635 4.9766
377 1 0.499438 8.21054 3.15341
378 1 0.587051 7.62553 4.0199
379 1 1.66143 8.34897 3.21887
380 1 1.66176 7.76331 4.01902
381 1 3.7641 8.70809 3.22803
382 1 2.71909 7.83062 4.01983
383 1 4.03644 7.51906 3.10382
384 1 3.93438 8.06251 3.97862
385 1 4.41004 4.77547 1.52248
386 1 5.13717 5.49422 12.8962
387 1 4.46656 5.42178 2.36761
388 1 5.02478 4.89521 0.808122
389 1 5.56139 5.43816 2.41261
390 1 6.10483 4.66605 0.843526
391 1 6.28504 5.36366 3.20329
392 1 5.625 4.91653 1.5985
393 1 6.81295 4.68455 1.5297
394 1 6.62633 5.23573 12.1068
395 1 6.62101 5.12817 2.3455
396 1 7.29392 4.57712 0.739439
397 1 7.80562 4.43823 1.66034
398 1 8.38431 4.96409 0.00851797
399 1 7.78215 5.11339 2.26837
400 1 8.4187 4.33515 0.857305
401 1 4.38771 5.90359 1.6003
402 1 4.99972 6.4833 12.8892
403 1 4.47059 6.62149 2.30685
404 1 4.9205 6.02744 0.820951
405 1 5.58726 6.01051 1.53558
406 1 6.09505 6.3966 12.9371
407 1 6.10613 6.43451 3.20037
408 1 6.20663 5.91654 0.783647
409 1 6.64277 5.73707 1.65745
410 1 7.23921 5.73285 0.809001
411 1 6.65037 6.35188 2.45769
412 1 7.21438 5.17471 0.00571563
413 1 7.84694 5.6538 1.57325
414 1 8.30142 6.04886 0.0489999
415 1 7.74263 6.15106 2.49237
416 1 8.383 5.44528 0.878809
417 1 4.48415 7.01427 1.4875
418 1 5.08195 7.7083 0.0721455
419 1 4.43099 7.72336 2.22905
420 1 5.01096 7.04357 0.739775
421 1 5.58997 6.75123 2.27394
422 1 6.29222 7.47989 12.9507
423 1 5.60653 7.3149 1.59747
424 1 6.07599 6.94703 0.763787
425 1 6.71128 6.92653 1.59573
426 1 7.33529 7.33542 0.101394
427 1 6.80224 7.36943 2.39529
428 1 7.24394 6.72395 0.898919
429 1 7.9842 6.73936 1.60329
430 1 8.44128 6.52452 0.825519
431 1 7.83692 7.28286 2.34759
432 1 8.94013 6.56445 1.67059
433 1 4.55237 8.3255 1.57101
434 1 5.04859 8.86027 12.8523
435 1 4.44437 8.79628 2.49167
436 1 5.05954 8.34436 0.80252
437 1 5.61393 7.88005 2.26826
438 1 6.14149 8.68566 0.00808249
439 1 5.59117 8.78126 2.47855
440 1 6.05123 8.11504 0.852779
441 1 6.7343 7.9387 1.58428
442 1 7.19261 8.4157 12.921
443 1 6.79725 8.49402 2.41331
444 1 7.28231 7.95866 0.776089
445 1 7.9212 7.78293 1.56594
446 1 8.47775 7.80587 0.753733
447 1 7.72005 8.92155 1.68713
448 1 8.37811 7.17902 0.0352758
449 1 5.14117 5.35128 3.20527
450 1 4.95102 4.30065 3.22699
451 1 6.16486 5.91641 4.21195
452 1 5.97695 4.17797 3.28075
453 1 7.37826 5.11563 3.18592
454 1 7.23108 4.61997 3.99736
455 1 8.37249 5.04636 3.24453
456 1 8.34402 3.2166 4.0876
457 1 5.18016 5.96813 3.93045
458 1 4.4781 5.39266 5.61626
459 1 6.18832 6.89661 4.02305
460 1 6.23473 7.5332 3.09518
461 1 7.20134 6.1115 3.25874
462 1 7.91867 5.58149 4.74578
463 1 8.35542 6.18708 3.20258
464 1 7.75192 4.94636 5.59936
465 1 5.11798 8.32155 4.03352
466 1 5.0614 6.50945 3.07839
467 1 6.16545 8.06708 3.84708
468 1 4.98546 7.18057 3.87881
469 1 7.28083 7.93186 4.0633
470 1 7.41359 7.47343 3.21783
471 1 8.47964 7.23596 3.20129
472 1 8.40731 6.66035 4.03461
473 1 4.9895 8.7786 3.23853
474 1 4.44268 8.08634 4.75863
475 1 5.47721 8.27421 4.8403
476 1 6.5595 8.16288 4.7958
477 1 7.24226 8.61767 3.26269
478 1 6.78435 9.12031 4.86175
479 1 7.92384 8.39145 2.38519
480 1 8.45048 7.84293 4.13113
481 1 9.04111 4.43342 1.42427
482 1 9.44409 4.93182 0.126057
483 1 8.88801 4.95747 2.39699
484 1 9.70998 4.31087 0.806098
485 1 10.1212 4.16819 1.66354
486 1 10.4425 5.00574 12.9256
487 1 10.0927 4.78298 2.39068
488 1 10.6438 4.32463 0.81504
489 1 11.2156 4.0212 1.68572
490 1 11.7269 4.69418 12.9463
491 1 11.219 4.62664 2.41717
492 1 11.6972 4.29653 0.878155
493 1 12.3064 4.05868 1.55064
494 1 12.9092 4.84003 0.0629191
495 1 12.4244 4.5746 2.50709
496 1 12.8976 4.32975 0.839744
497 1 9.09794 5.46409 1.64204
498 1 9.58 6.03178 12.8515
499 1 9.569 6.0657 3.12771
500 1 9.52177 5.56432 0.756419
501 1 10.1574 5.33561 1.48657
502 1 10.7357 6.04817 12.8412
503 1 10.0705 5.88068 2.37173
504 1 10.8006 5.37688 0.831425
505 1 11.1648 5.22696 1.69833
506 1 11.7646 5.79425 12.9264
507 1 11.2328 5.88134 2.44295
508 1 11.8453 5.34638 0.877695
509 1 12.3552 5.19083 1.78508
510 1 12.8892 5.80203 12.7772
511 1 12.2945 5.90106 2.3729
512 1 12.8574 5.43004 0.836119
513 1 8.94557 5.97778 2.47478
514 1 9.68281 7.02367 12.9365
515 1 9.0211 7.28972 2.39414
516 1 9.50416 6.64174 0.857714
517 1 10.1284 6.47767 1.65275
518 1 10.8124 7.03261 12.9212
519 1 10.0379 7.12005 2.35112
520 1 10.5748 6.45387 0.853839
521 1 11.1916 6.37237 1.62597
522 1 11.8552 6.94767 0.067486
523 1 11.1191 7.0027 2.47707
524 1 11.7799 6.32914 0.819543
525 1 12.3055 6.43561 1.66506
526 1 12.9137 7.05537 12.9202
527 1 12.2798 7.01313 2.57293
528 1 12.8358 6.44909 0.698196
529 1 9.07371 7.76679 1.51694
530 1 9.58856 8.30673 12.8711
531 1 8.43394 8.33132 3.27146
532 1 9.51859 7.69153 0.569248
533 1 10.0899 7.76854 1.47734
534 1 10.6201 8.06005 0.053886
535 1 10.1501 8.20396 2.49248
536 1 10.6591 7.48897 0.815053
537 1 11.2626 7.443 1.55917
538 1 11.8285 8.14919 0.0193818
539 1 11.2302 8.01861 2.42121
540 1 11.8244 7.62336 0.792899
541 1 12.3141 7.42759 1.58097
542 1 12.8275 8.20643 0.0729163
543 1 12.3302 8.00749 2.4647
544 1 13.0134 7.61642 0.861377
545 1 9.47672 4.87472 3.25063
546 1 9.57148 4.2677 4.08585
547 1 10.6493 4.65834 3.23047
548 1 10.7532 4.18573 4.01916
549 1 11.7403 4.74572 3.23226
550 1 11.8423 4.08632 4.01485
551 1 12.8981 4.78517 3.25805
552 1 12.8668 4.16842 4.194
553 1 9.49084 6.44469 4.04556
554 1 9.62761 5.43322 3.9508
555 1 10.7422 5.79277 3.1664
556 1 10.6617 5.31921 4.03518
557 1 11.8118 5.6987 3.29434
558 1 11.8442 5.15871 4.26955
559 1 12.8472 5.86546 3.30536
560 1 13.062 5.39677 3.99306
561 1 9.47383 8.26506 3.27328
562 1 9.52578 7.10688 3.24424
563 1 10.5755 6.89118 3.22781
564 1 10.6559 6.40094 4.07043
565 1 11.7547 6.81151 3.23817
566 1 11.776 6.25762 4.05136
567 1 12.9323 6.99097 3.32784
568 1 12.7579 6.4034 4.10011
569 1 9.04934 8.3795 2.36286
570 1 9.00548 7.79016 4.87143
571 1 10.6223 8.14588 3.30986
572 1 10.643 7.52595 4.00437
573 1 11.7618 7.98583 3.29762
574 1 11.7179 7.38569 4.12074
575 1 12.83 8.22102 3.36633
576 1 12.8427 7.57209 4.09268
577 1 0.138076 8.73812 1.49449
578 1 0.494167 9.40028 0.00843324
579 1 0.0993584 9.38589 2.36708
580 1 0.66233 8.96328 0.780766
581 1 1.26213 8.92273 1.61483
582 1 1.71679 9.61125 12.8559
583 1 1.14155 9.5352 2.48539
584 1 1.72387 9.01491 0.796301
585 1 2.31446 9.01171 1.66552
586 1 2.91695 9.6747 0.019718
587 1 2.36798 9.63711 2.4827
588 1 2.70775 9.13426 0.721818
589 1 3.34285 9.08703 1.5593
590 1 4.07317 9.78317 0.091356
591 1 3.31746 8.64098 2.42574
592 1 3.97985 9.31958 0.912808
593 1 0.107662 9.91526 1.58714
594 1 0.653131 10.5117 12.8712
595 1 0.069138 10.5058 2.32733
596 1 0.617221 10.029 0.84792
597 1 1.27913 10.0603 1.59189
598 1 1.63702 10.7914 0.000660395
599 1 1.1468 10.6268 2.49221
600 1 1.75861 10.1766 0.660079
601 1 2.21885 10.2111 1.64753
602 1 2.72959 10.8637 0.0883846
603 1 2.22275 10.799 2.44355
604 1 2.78649 10.2398 0.788448
605 1 3.27696 10.24 1.58564
606 1 3.86628 10.9575 12.8717
607 1 3.38726 10.9834 2.38051
608 1 3.91808 10.4045 0.672147
609 1 13.3087 11.1188 1.76264
610 1 0.605299 11.5129 12.8914
611 1 13.4171 11.7059 2.58679
612 1 0.567187 11.0952 0.91649
613 1 1.11927 11.2055 1.72548
614 1 1.69873 11.8109 12.9118
615 1 1.18078 11.8108 2.37509
616 1 1.59992 11.2064 0.832583
617 1 2.2186 11.3061 1.51352
618 1 2.80043 11.9156 12.8118
619 1 2.30467 11.8026 2.43132
620 1 2.81158 11.5769 0.705297
621 1 3.3285 11.312 1.52344
622 1 3.89443 12.0798 0.0574794
623 1 3.39665 11.9726 2.26391
624 1 3.99217 11.5681 0.794732
625 1 13.3939 12.1868 1.74597
626 1 0.601739 12.7417 0.112899
627 1 13.3996 12.7926 2.48143
628 1 0.441853 12.0906 0.816874
629 1 1.07681 12.3204 1.47635
630 1 1.68329 12.8168 12.9157
631 1 1.06705 12.8205 2.43419
632 1 1.70134 12.3652 0.764549
633 1 2.17345 12.3842 1.67952
634 1 2.71604 13.1055 12.9255
635 1 2.1606 13.0004 2.34764
636 1 2.69516 12.6252 0.807394
637 1 3.29019 12.6296 1.53616
638 1 3.82529 13.1787 12.8809
639 1 3.33418 12.9994 2.44984
640 1 3.92622 12.6672 0.764898
641 1 0.579645 9.30683 3.17049
642 1 0.555685 8.6573 4.02167
643 1 1.75697 9.54669 3.18026
644 1 1.6084 8.89217 4.0443
645 1 2.81658 8.46833 3.38903
646 1 2.68543 9.16295 4.12455
647 1 3.35243 9.77699 2.37786
648 1 3.87214 9.79875 3.33102
649 1 0.480864 10.4835 3.28634
650 1 0.477248 9.77467 3.94153
651 1 1.5932 10.6019 3.28859
652 1 1.69541 10.0394 4.05658
653 1 2.78722 10.6651 3.15218
654 1 2.81947 10.3386 4.00498
655 1 3.87132 10.8263 3.13848
656 1 3.91938 10.4224 4.11093
657 1 0.590972 11.678 3.18149
658 1 0.506388 10.9494 4.10098
659 1 1.66819 11.7145 3.28338
660 1 1.62078 11.2224 4.04036
661 1 2.80506 11.9755 3.20833
662 1 2.72443 11.4134 3.86683
663 1 3.82875 11.9798 3.29852
664 1 3.83414 11.3627 3.92093
665 1 0.633995 12.7463 3.24449
666 1 0.40415 12.0308 4.00421
667 1 1.71614 12.7239 3.23228
668 1 1.59359 12.3117 4.16439
669 1 2.78319 13.1401 3.12598
670 1 2.79784 12.5848 3.97945
671 1 3.99721 13.2502 3.16249
672 1 3.86266 12.6909 3.96892
673 1 4.56152 9.35034 1.7475
674 1 5.11355 9.82051 0.0766529
675 1 4.38331 9.87343 2.49614
676 1 5.03733 9.37595 0.939918
677 1 5.68773 8.95783 1.57367
678 1 6.15873 10.7892 0.105505
679 1 5.47485 9.79728 2.23799
680 1 6.21976 9.27572 0.829875
681 1 6.77966 9.21374 1.72582
682 1 7.31452 9.48053 12.9338
683 1 6.65954 9.69478 2.5479
684 1 7.23529 9.00384 0.838191
685 1 8.41674 8.85035 0.879144
686 1 8.51331 9.38201 12.9174
687 1 7.78355 9.99944 1.53361
688 1 8.43156 8.31003 12.9398
689 1 4.40053 10.4975 1.54437
690 1 5.05269 10.9135 12.9397
691 1 4.55468 10.9366 2.29667
692 1 5.12717 10.4294 0.986316
693 1 5.6631 10.5242 1.77274
694 1 5.56878 10.9881 12.2236
695 1 5.64442 11.0733 2.55702
696 1 6.16991 9.71482 12.8484
697 1 6.20014 10.2827 0.808997
698 1 7.24504 10.7694 0.046597
699 1 6.73122 10.8082 2.35172
700 1 6.68426 10.2172 1.63742
701 1 7.28347 10.2297 0.822332
702 1 8.24782 10.5984 12.9301
703 1 7.75951 10.6194 2.25814
704 1 8.3466 9.92636 0.731794
705 1 4.515 11.6223 1.63431
706 1 5.00623 12.2088 0.0804007
707 1 4.42268 12.1181 2.62808
708 1 5.11235 11.5588 0.654919
709 1 5.44883 11.5587 1.67178
710 1 6.13063 12.0288 12.9133
711 1 5.6284 12.1869 2.34492
712 1 6.15253 11.446 0.851777
713 1 6.67208 11.4342 1.55699
714 1 7.19123 11.8427 0.0611042
715 1 6.63193 11.9668 2.2763
716 1 7.40358 11.3236 0.836351
717 1 7.88065 11.2935 1.52483
718 1 8.47006 11.6747 12.8905
719 1 7.71752 11.754 2.39172
720 1 8.54687 11.1111 0.805524
721 1 4.43153 12.6234 1.57052
722 1 5.05491 13.3494 12.8212
723 1 4.49464 13.1325 2.37102
724 1 4.99905 12.829 0.842166
725 1 5.58247 12.6449 1.53245
726 1 6.02071 13.109 12.9472
727 1 5.58456 13.1981 2.33149
728 1 6.24145 12.5381 0.834104
729 1 6.81101 12.6023 1.54625
730 1 7.19202 12.9958 12.9376
731 1 6.63537 13.0425 2.40684
732 1 7.40643 12.4336 0.753705
733 1 7.92882 12.3542 1.68748
734 1 8.34639 12.7519 0.0897984
735 1 7.71862 12.8799 2.5037
736 1 8.48123 12.1541 0.80409
737 1 5.02313 9.82885 3.25099
738 1 5.02041 9.46267 4.10117
739 1 5.99463 9.88594 3.11136
740 1 6.18676 9.31356 3.98532
741 1 8.067 9.55635 2.4694
742 1 7.27833 9.11596 3.96316
743 1 8.52764 9.49289 3.35133
744 1 8.99037 8.92491 4.88579
745 1 5.00662 10.951 3.14815
746 1 4.98949 10.6689 3.99867
747 1 6.26853 10.941 3.29516
748 1 6.15317 10.2976 3.91264
749 1 7.30863 10.7057 3.174
750 1 7.22424 10.1582 4.03283
751 1 8.39227 10.6007 3.278
752 1 8.3081 10.0762 4.0482
753 1 5.09215 12.0885 3.2363
754 1 4.97565 11.6887 4.02244
755 1 6.15928 12.0089 3.24854
756 1 6.05949 11.4787 4.05639
757 1 7.14227 11.7942 3.21386
758 1 7.3263 11.2072 4.11433
759 1 8.25478 11.639 3.19614
760 1 8.58874 11.1563 4.00894
761 1 5.0444 13.3295 3.20012
762 1 4.91475 12.6655 3.98335
763 1 6.07497 13.0372 3.30694
764 1 6.10045 12.5702 4.09326
765 1 7.13546 12.869 3.22286
766 1 7.31555 12.2458 3.99539
767 1 8.37632 12.743 3.17722
768 1 8.34134 12.2511 4.10391
769 1 9.04857 8.90951 1.54218
770 1 9.4458 9.49216 12.8414
771 1 9.06585 9.53986 2.29722
772 1 9.66451 8.82344 0.843477
773 1 10.1638 8.76482 1.58868
774 1 10.643 9.28903 12.9413
775 1 10.0823 9.18006 2.43044
776 1 10.7508 8.72907 0.755284
777 1 11.1699 8.60446 1.64898
778 1 11.7707 9.3141 12.824
779 1 11.3743 9.16933 2.45933
780 1 11.7427 8.67495 0.852046
781 1 12.3243 8.52811 1.62764
782 1 12.9256 9.16318 0.0579856
783 1 12.3784 9.29757 2.38775
784 1 12.774 8.82021 0.892156
785 1 8.95272 10.0745 1.50472
786 1 9.51234 10.387 0.0538736
787 1 8.82525 10.6215 2.32088
788 1 9.63908 9.8984 0.930957
789 1 10.1833 9.86644 1.72544
790 1 10.7119 10.3997 12.9434
791 1 10.0617 10.4285 2.39529
792 1 10.6326 9.8427 0.673464
793 1 11.2313 9.76064 1.67608
794 1 11.7172 10.3028 12.8991
795 1 11.1176 10.2746 2.67491
796 1 11.7803 9.81365 0.806649
797 1 12.2835 9.74805 1.70676
798 1 12.9716 10.2536 12.8546
799 1 12.446 10.4115 2.4052
800 1 12.7955 9.85939 0.858167
801 1 9.0252 11.1525 1.66937
802 1 9.64502 11.6439 12.8678
803 1 8.88684 11.747 2.54113
804 1 9.60281 11.0051 0.727601
805 1 10.0663 10.9812 1.59956
806 1 10.7315 11.4579 12.901
807 1 10.0541 11.469 2.58728
808 1 10.6215 10.998 0.867381
809 1 11.255 10.6888 1.58092
810 1 11.9185 11.5578 0.0102592
811 1 11.1097 11.3164 2.27819
812 1 11.7337 10.906 0.708592
813 1 12.2951 10.9059 1.59826
814 1 12.9092 11.28 0.0838704
815 1 12.116 11.5099 2.49654
816 1 12.9759 10.8984 0.844412
817 1 8.98846 12.2495 1.70706
818 1 9.55981 12.7967 12.7659
819 1 8.99419 12.8969 2.62892
820 1 9.56636 12.1143 0.678678
821 1 9.99307 12.0411 1.64365
822 1 10.6333 12.7407 0.0643212
823 1 10.0211 12.6339 2.45321
824 1 10.6046 12.0432 0.754446
825 1 11.1111 12.0515 1.80048
826 1 11.6712 12.5165 0.0595024
827 1 11.0463 12.6807 2.45097
828 1 11.673 11.9394 1.01552
829 1 12.2705 11.9445 1.64467
830 1 12.8931 12.5426 0.0115498
831 1 12.2447 12.4745 2.58365
832 1 12.835 12.0762 0.812295
833 1 9.47516 9.40172 3.26271
834 1 9.98127 8.66439 4.95079
835 1 10.557 9.19043 3.14507
836 1 10.6498 8.61161 4.14635
837 1 11.7509 9.11744 3.2306
838 1 11.8877 8.57566 4.06671
839 1 12.8912 9.30497 3.12455
840 1 12.9766 8.82578 4.03134
841 1 9.45424 10.5354 3.18407
842 1 9.51687 9.91119 4.11997
843 1 10.4412 10.2334 3.31416
844 1 10.6867 9.599 4.03364
845 1 11.7513 10.2678 3.15284
846 1 11.6883 9.67157 4.03211
847 1 12.8623 10.3573 3.28147
848 1 12.8004 9.75095 4.07751
849 1 9.47821 11.6023 3.26484
850 1 9.66284 11.0179 4.00696
851 1 10.7292 11.5056 3.15025
852 1 10.622 10.9059 4.0512
853 1 11.7212 11.425 3.35426
854 1 11.6807 10.6536 4.04382
855 1 12.8636 11.2788 3.17902
856 1 12.8207 10.8249 4.22284
857 1 9.66773 12.7734 3.3792
858 1 9.42674 12.1454 3.99796
859 1 10.6161 12.4821 3.45155
860 1 10.5126 11.9027 4.19206
861 1 11.6268 12.5091 3.33054
862 1 11.7412 11.8065 4.09817
863 1 12.7929 12.6881 3.30365
864 1 12.7908 11.9895 3.92153
865 1 13.4184 13.1493 4.89681
866 1 13.2709 0.338925 5.68977
867 1 1.07262 13.336 4.89579
868 1 0.936992 0.400854 5.77255
869 1 2.20703 0.26959 4.86947
870 1 2.23724 0.635127 5.78896
871 1 3.29923 0.0857209 4.88138
872 1 3.44349 0.836867 5.45413
873 1 0.00114069 0.936967 4.88579
874 1 13.4019 1.45542 5.70893
875 1 1.14585 1.00346 4.94542
876 1 1.07304 1.60863 5.64095
877 1 2.17893 1.26083 4.85467
878 1 2.19663 1.73986 5.71282
879 1 3.35538 1.45048 4.71835
880 1 3.30624 1.96209 5.56727
881 1 13.3793 1.9545 4.87109
882 1 13.3318 2.59105 5.54451
883 1 1.11637 2.16059 4.90803
884 1 1.01562 2.69173 5.72428
885 1 2.23397 2.3562 4.90184
886 1 2.36513 2.77123 5.82315
887 1 3.48969 3.23047 5.58668
888 1 4.09754 3.13869 6.2823
889 1 0.218132 3.16962 4.84777
890 1 13.3826 3.60149 5.66825
891 1 1.25234 3.27261 4.95199
892 1 1.18574 3.85698 5.60195
893 1 2.208 3.32369 4.88899
894 1 2.37867 3.94478 5.65302
895 1 3.32213 3.55849 4.75465
896 1 3.53781 4.2806 5.77065
897 1 13.3356 13.1702 8.01765
898 1 0.347558 0.281169 6.42216
899 1 0.571745 13.2738 7.41077
900 1 1.18947 13.4277 8.01073
901 1 1.60913 0.630231 6.39759
902 1 1.72511 0.0095506 7.27042
903 1 2.195 0.0274145 8.12329
904 1 2.95969 0.673513 6.34837
905 1 2.70973 0.209657 7.20346
906 1 3.26213 0.172464 8.1276
907 1 3.86301 0.886292 6.55221
908 1 3.80846 0.291325 7.35596
909 1 0.11145 0.959338 8.1429
910 1 0.596833 1.56188 6.41221
911 1 0.356501 0.911843 7.22347
912 1 1.13924 1.15228 8.14537
913 1 1.68447 1.69065 6.62543
914 1 1.48179 1.00098 7.23562
915 1 2.16735 1.24167 8.06331
916 1 2.86946 1.70374 6.46057
917 1 2.66541 1.21358 7.36911
918 1 3.39515 0.900902 8.82848
919 1 3.96436 2.67905 7.20223
920 1 3.86598 1.40501 7.29672
921 1 13.3827 2.05922 8.08272
922 1 0.424909 2.57028 6.49022
923 1 0.544068 2.17806 7.31016
924 1 1.11498 2.16301 8.03924
925 1 1.61685 2.8696 6.26333
926 1 1.71867 2.44829 7.24325
927 1 2.19535 2.28292 8.17442
928 1 3.00386 2.93529 6.37383
929 1 2.78531 2.32055 7.16801
930 1 3.34385 2.06055 8.78919
931 1 4.0012 3.74616 7.19756
932 1 3.24389 2.52148 8.01409
933 1 13.4035 3.18471 7.94026
934 1 0.541933 3.74085 6.43616
935 1 0.655691 3.21827 7.27195
936 1 1.13889 3.33508 8.14369
937 1 1.78082 3.85422 6.41391
938 1 1.80961 3.40384 7.2542
939 1 2.29375 3.53287 8.0943
940 1 2.86915 4.07237 6.51872
941 1 2.9439 3.41933 7.24688
942 1 3.36152 3.61236 8.07419
943 1 4.0235 4.33732 6.48257
944 1 3.90874 2.01061 6.58541
945 1 4.44138 0.399415 4.83949
946 1 4.46513 1.10587 5.73398
947 1 5.59403 0.43987 4.71769
948 1 5.48759 0.874182 5.5015
949 1 6.64861 0.263968 4.94566
950 1 6.66521 0.863009 5.72609
951 1 7.73676 13.4214 4.85914
952 1 7.74364 0.517142 5.62429
953 1 4.55683 1.48955 4.8166
954 1 4.54092 3.43944 5.23196
955 1 5.5529 1.63534 4.82377
956 1 5.49693 1.95884 5.67098
957 1 6.53222 1.31644 4.85898
958 1 6.7522 1.8866 5.66465
959 1 7.73758 1.1389 4.9086
960 1 7.76692 1.71301 5.61787
961 1 4.19175 2.21301 5.68111
962 1 5.11445 4.22123 6.63526
963 1 5.5404 2.64955 4.88169
964 1 5.51159 3.19642 5.57587
965 1 6.66422 2.49233 4.78376
966 1 6.68876 2.89675 5.6132
967 1 7.82515 2.28174 4.89666
968 1 7.84063 2.83621 5.64175
969 1 5.69425 3.73048 4.68523
970 1 3.97004 4.88949 7.32696
971 1 5.12302 4.90587 4.1724
972 1 5.71778 4.78485 4.8686
973 1 6.75385 3.64 4.87522
974 1 6.71558 4.0171 5.71168
975 1 7.78269 3.88978 5.62495
976 1 8.49825 3.88647 6.46627
977 1 4.48004 0.380085 8.08558
978 1 4.96749 0.939975 6.46304
979 1 4.83716 0.317009 7.23153
980 1 5.55955 0.47522 8.10049
981 1 6.04705 0.797107 6.44381
982 1 6.07496 0.387585 7.31789
983 1 6.7483 13.134 8.88538
984 1 7.20063 0.685604 6.48964
985 1 6.74841 0.232493 8.11026
986 1 7.79079 0.0244666 8.04776
987 1 8.30326 0.697041 6.41287
988 1 8.31198 0.11303 7.24509
989 1 4.52055 1.4181 8.08127
990 1 5.01217 2.09285 6.40364
991 1 5.00761 1.52364 7.13688
992 1 5.46292 1.57137 8.14682