data.lammps (converted from cfg to data.lammps)
    
2298  atoms
1  atom types
0.0   13.4375  xlo xhi
0.0   13.4375  ylo yhi
0.0   12.952  zlo zhi
0.0  0.0 0.0 xy xz yz
    
    
    
Atoms
  
1 1 0.00946191 0.500047 2.44742
2 1 0.556953 0.452582 12.9501
3 1 13.4334 1.0235 1.5272
4 1 0.574004 13.3305 0.790137
5 1 1.14906 0.113155 1.68026
6 1 2.26351 0.848245 12.1836
7 1 1.22846 0.737149 2.42569
8 1 1.62523 0.229865 0.922392
9 1 2.25333 0.130589 1.57928
10 1 2.84629 1.51908 0.806345
11 1 2.2701 0.718659 2.32579
12 1 2.82063 0.263784 0.809358
13 1 3.4407 0.433264 1.54306
14 1 3.83009 0.839066 12.9133
15 1 3.40692 0.86783 2.46694
16 1 3.98492 0.272483 0.821236
17 1 12.8888 1.02352 0.678954
18 1 1.5636 1.83919 0.0503285
19 1 13.3931 1.6294 2.33181
20 1 0.544853 1.03771 0.686004
21 1 1.12193 1.32119 1.5781
22 1 0.561545 1.70577 12.8626
23 1 1.00163 1.85212 2.33553
24 1 1.68041 1.28002 0.759386
25 1 2.18242 1.2998 1.5897
26 1 2.7095 1.89138 12.8268
27 1 2.30106 1.88419 2.3052
28 1 3.4334 2.05367 2.37371
29 1 3.9825 1.38546 0.707734
30 1 3.86874 2.06389 0.0396061
31 1 4.99918 1.92285 3.32412
32 1 4.97706 1.34458 0.778224
33 1 13.3704 2.23564 1.52929
34 1 0.510161 2.7617 0.236835
35 1 13.3743 2.67465 2.50673
36 1 0.531851 2.16432 0.877603
37 1 1.79916 2.57348 0.855498
38 1 1.68348 3.08107 0.0116543
39 1 1.12252 2.88742 2.44394
40 1 2.26513 2.49399 1.64975
41 1 2.81985 2.54595 0.661496
42 1 2.72414 3.09656 12.9105
43 1 2.19952 3.02341 2.47511
44 1 3.30882 2.66088 1.60276
45 1 3.30022 1.51697 1.58685
46 1 3.98852 3.12817 0.212313
47 1 2.77234 3.03772 3.21785
48 1 3.96061 2.49638 0.955319
49 1 13.3624 3.26199 1.64668
50 1 0.452978 3.47877 0.873523
51 1 0.156344 3.84057 2.40205
52 1 1.03704 3.42181 1.68925
53 1 1.12385 2.42754 1.51136
54 1 1.72309 4.12801 0.0197412
55 1 1.18942 4.01439 2.49821
56 1 1.67439 3.54973 0.946966
57 1 2.25286 3.57408 1.66043
58 1 2.67721 4.23273 0.115138
59 1 2.26676 4.15522 2.52887
60 1 2.78498 3.72712 0.875488
61 1 3.34516 3.74126 1.69911
62 1 3.93983 4.27748 12.9511
63 1 3.29971 4.28428 2.47568
64 1 3.84005 3.80354 0.846948
65 1 0.498461 0.494172 3.1292
66 1 0.692605 13.4045 4.05041
67 1 1.76633 0.813856 3.1642
68 1 1.68305 0.263573 4.03249
69 1 2.78643 0.851923 3.27266
70 1 2.86 0.141533 4.00332
71 1 3.92629 0.83922 3.16385
72 1 3.94981 0.377232 3.99533
73 1 0.600197 1.64272 3.30507
74 1 0.682223 1.00435 4.12734
75 1 1.68027 1.8994 3.07215
76 1 1.63119 1.35575 4.00848
77 1 2.84569 1.9313 3.10174
78 1 2.77267 1.43199 4.02639
79 1 3.98157 2.61937 4.00379
80 1 4.49195 2.00013 2.53938
81 1 0.540932 2.80068 3.21895
82 1 0.571229 2.24663 3.97177
83 1 1.65453 3.04359 3.29464
84 1 1.78435 2.4193 4.00741
85 1 2.79618 2.55608 4.06781
86 1 3.45891 2.52597 4.90749
87 1 3.37573 3.12257 2.45284
88 1 4.54384 2.52691 4.80445
89 1 0.499476 4.04169 3.23696
90 1 0.567759 3.40794 3.97705
91 1 1.67111 4.04274 3.35424
92 1 1.73641 3.58413 4.16566
93 1 2.7531 4.13051 3.31111
94 1 2.87404 3.58624 4.20041
95 1 3.92806 4.32142 3.15287
96 1 3.76125 3.28489 3.39381
97 1 4.5328 0.408771 1.63577
98 1 5.09007 0.96263 12.8439
99 1 4.4053 1.07651 2.36514
100 1 5.09639 0.337287 0.646147
101 1 5.51101 0.378549 1.52099
102 1 6.25201 0.803892 12.9224
103 1 5.583 0.860712 2.48515
104 1 6.21975 0.23761 0.727667
105 1 6.68154 0.165331 1.66986
106 1 7.33986 0.511094 12.8822
107 1 6.699 0.752884 2.36336
108 1 7.91074 13.3526 1.5869
109 1 7.28568 13.4178 0.959438
110 1 7.94606 0.531751 12.1525
111 1 7.80251 0.462551 2.44451
112 1 8.44219 13.3079 0.86638
113 1 4.44754 1.60453 1.61487
114 1 4.80956 2.07341 0.0264905
115 1 3.84036 2.08644 3.29022
116 1 5.49962 1.38633 1.62603
117 1 6.15194 1.24309 0.821738
118 1 6.08558 2.44831 0.760637
119 1 5.57297 1.93374 2.41212
120 1 6.24785 1.83294 12.9194
121 1 6.78762 1.28013 1.45217
122 1 6.83388 1.74845 12.0812
123 1 6.69482 1.79752 2.51192
124 1 7.31841 1.12718 0.729984
125 1 7.78385 1.00626 1.71209
126 1 9.06869 1.43776 11.932
127 1 7.69164 1.61418 2.5023
128 1 8.60978 1.3905 12.8294
129 1 4.56464 2.71799 1.62524
130 1 5.03269 3.12177 0.0818261
131 1 4.37029 3.08403 2.5728
132 1 5.1595 2.39267 0.788494
133 1 5.64406 2.57973 1.67665
134 1 6.31397 3.10424 12.9236
135 1 5.61243 3.15359 2.52412
136 1 6.6403 2.25237 1.55459
137 1 7.89589 2.74888 2.46197
138 1 7.90282 2.64231 11.9766
139 1 6.81257 2.88656 2.27451
140 1 7.35988 1.68423 0.112228
141 1 7.27806 2.32102 0.784762
142 1 8.36634 2.54764 0.0338687
143 1 7.84754 3.27692 1.61835
144 1 7.80809 2.1795 1.65406
145 1 4.44406 3.69146 1.53916
146 1 5.10346 4.1669 12.9197
147 1 4.52008 4.14086 2.38249
148 1 5.0719 3.67458 0.824922
149 1 5.66696 3.50535 1.60508
150 1 6.1542 4.23229 12.8942
151 1 5.52924 4.21139 2.2536
152 1 6.20334 3.53788 0.7879
153 1 7.27537 3.95799 0.0400693
154 1 6.70514 3.93481 12.0531
155 1 6.74013 3.46306 1.57061
156 1 7.33337 3.34419 0.784854
157 1 7.89218 3.8592 2.39029
158 1 8.3048 3.76911 12.9363
159 1 8.40404 3.78669 3.23098
160 1 8.56818 3.23379 0.808609
161 1 5.03464 0.790657 3.22485
162 1 4.95685 0.258134 3.99819
163 1 6.19774 0.8309 3.23489
164 1 6.0599 0.27259 3.93177
165 1 7.23482 0.541335 3.29631
166 1 7.2607 13.3921 4.15292
167 1 8.40919 0.454108 3.27892
168 1 8.47152 13.2687 4.1299
169 1 5.11179 1.39638 4.09674
170 1 4.47137 1.43783 4.71862
171 1 6.08555 2.02611 3.20363
172 1 6.07671 1.40575 3.98332
173 1 7.17704 1.73427 3.32269
174 1 7.31809 1.13528 4.02628
175 1 8.36651 1.56966 3.22542
176 1 8.37249 0.954826 4.07817
177 1 5.02241 3.07915 3.1862
178 1 5.1381 2.67441 4.01121
179 1 6.34144 3.02399 3.12124
180 1 6.15405 2.53578 4.03023
181 1 7.38533 2.85402 3.26677
182 1 7.28916 2.44051 4.08664
183 1 8.50591 2.64697 3.2634
184 1 8.41147 2.15542 4.07333
185 1 5.02309 3.74048 3.92879
186 1 4.5792 3.62077 4.93392
187 1 6.69831 4.13614 2.4096
188 1 6.14157 3.46454 4.03959
189 1 7.36869 3.98438 3.08756
190 1 7.20839 3.55609 4.01914
191 1 8.53811 4.9224 3.19127
192 1 7.81426 3.32828 4.90396
193 1 8.9953 13.2061 1.69846
194 1 8.9949 0.173438 12.0806
195 1 8.95703 0.354429 2.53393
196 1 9.57059 13.2309 0.787787
197 1 10.0071 12.8449 1.54402
198 1 10.7033 0.154057 0.055847
199 1 10.0482 0.011518 2.54044
200 1 10.655 13.0124 0.7671
201 1 11.0886 13.0289 1.61261
202 1 11.1674 0.24559 12.1476
203 1 11.2735 0.203519 2.43187
204 1 11.8432 13.1482 0.773214
205 1 12.2736 13.3078 1.57218
206 1 11.8661 0.149304 12.9042
207 1 12.3091 0.413516 2.45347
208 1 12.9137 13.3528 0.731339
209 1 8.42977 1.08947 0.821205
210 1 9.35896 1.87422 0.986427
211 1 8.97993 0.846374 1.6017
212 1 9.52118 0.305158 12.8636
213 1 10.2682 0.56033 1.69807
214 1 10.0283 2.36027 12.2026
215 1 9.62368 1.3834 3.1654
216 1 10.6617 0.784672 0.72969
217 1 11.1535 0.665698 1.53166
218 1 11.7145 2.11387 0.79088
219 1 11.1827 1.26003 2.36295
220 1 11.7424 0.806601 0.632795
221 1 12.2067 0.874459 1.46055
222 1 12.835 0.45315 12.7891
223 1 12.2683 1.48526 2.23506
224 1 13.4255 0.019028 1.62836
225 1 8.88913 1.9538 1.80195
226 1 8.99893 2.49295 12.2403
227 1 9.09517 2.72629 2.46122
228 1 10.0445 1.80249 1.65668
229 1 10.0522 1.18705 2.36356
230 1 10.2661 1.83879 11.2681
231 1 10.1985 2.38552 2.33742
232 1 10.577 1.75204 0.876053
233 1 11.2526 1.78168 1.56048
234 1 12.3432 2.51663 12.2473
235 1 11.13 2.454 2.2601
236 1 11.2039 2.50694 12.0473
237 1 12.5047 1.98976 1.20512
238 1 11.7546 2.63835 0.0219258
239 1 12.1716 2.40503 2.31229
240 1 12.9824 1.7026 0.152869
241 1 9.01726 3.07455 1.5634
242 1 9.56735 4.08513 0.896105
243 1 9.03274 3.73858 2.3514
244 1 9.56824 2.95468 0.728299
245 1 10.0658 3.10396 1.61452
246 1 10.6482 3.40475 0.0629948
247 1 10.1705 3.62196 2.49003
248 1 10.1331 2.85474 11.3385
249 1 11.3232 3.03904 1.38902
250 1 12.3745 3.59092 12.1033
251 1 11.2366 4.09291 1.68278
252 1 11.801 3.58292 12.8521
253 1 12.2738 2.94387 1.55566
254 1 12.654 3.23347 0.676496
255 1 12.3859 3.64698 2.30388
256 1 12.9368 2.53871 0.183972
257 1 9.50023 0.280607 3.41145
258 1 9.65943 13.1505 4.11479
259 1 10.5828 0.286209 3.17626
260 1 10.6816 13.0366 4.07681
261 1 11.6933 0.221467 3.34747
262 1 11.764 13.0359 3.9307
263 1 12.806 0.421997 3.23691
264 1 12.961 13.3027 3.94004
265 1 8.8772 1.43382 2.51087
266 1 9.55756 0.903543 4.03681
267 1 10.8041 1.31023 3.18619
268 1 10.7225 0.775088 4.0598
269 1 11.8518 1.48933 3.12848
270 1 11.7856 0.944877 3.99845
271 1 12.9258 1.51635 3.14994
272 1 12.9858 0.935286 4.00086
273 1 9.7357 2.4308 3.13299
274 1 9.49097 2.0009 4.10471
275 1 10.8388 2.30105 3.18286
276 1 10.6458 1.8432 4.13086
277 1 11.7861 2.60028 3.24005
278 1 11.8423 1.9866 4.04275
279 1 12.8439 2.70826 3.23081
280 1 13.0211 2.13568 3.9189
281 1 9.40727 3.64855 3.27234
282 1 9.52458 3.01753 4.10059
283 1 12.794 3.76297 3.14572
284 1 10.805 2.89057 3.98514
285 1 11.1584 3.43558 2.48474
286 1 11.892 2.96218 4.16082
287 1 11.8706 3.62426 3.14092
288 1 12.9869 3.23244 4.12831
289 1 13.3921 4.33034 1.63632
290 1 0.638214 5.12358 12.8715
291 1 13.3932 4.99766 2.39409
292 1 0.535525 4.48236 0.622806
293 1 1.0133 4.61378 1.6834
294 1 1.7865 5.30078 0.119154
295 1 1.19826 5.12036 2.39604
296 1 1.55081 4.62343 0.856762
297 1 2.20074 4.71 1.64445
298 1 2.7935 5.34995 0.0871745
299 1 2.32083 5.31287 2.47748
300 1 2.76542 4.75661 0.895196
301 1 3.44173 4.79692 1.51308
302 1 3.80527 5.63605 0.0203209
303 1 3.31136 5.39172 2.45176
304 1 3.94534 4.88909 0.712692
305 1 0.000174882 5.42987 1.54605
306 1 0.538613 6.15072 0.0077053
307 1 0.0521716 6.05394 2.43527
308 1 0.531575 5.66896 0.740226
309 1 1.10413 5.65156 1.69687
310 1 1.6387 6.39018 0.029489
311 1 1.13213 6.28953 2.39937
312 1 1.58323 5.79862 0.814793
313 1 2.19198 5.79241 1.59086
314 1 2.76822 6.54522 0.0712294
315 1 2.17231 6.40136 2.31327
316 1 2.78922 5.94448 0.931232
317 1 3.48283 5.85694 1.60741
318 1 3.88275 6.6611 12.8291
319 1 3.30591 6.43205 2.51828
320 1 3.95646 6.02328 0.866168
321 1 0.0377537 6.51083 1.63867
322 1 0.554204 7.29174 12.9026
323 1 13.259 7.23624 2.38477
324 1 0.437825 6.76871 0.788742
325 1 1.13297 6.79931 1.50448
326 1 1.63206 7.57366 0.0704994
327 1 1.08229 7.2827 2.51108
328 1 1.63736 6.92211 0.788093
329 1 2.21795 7.013 1.64334
330 1 2.72542 7.64051 12.8851
331 1 2.1677 7.56758 2.42933
332 1 2.79278 6.91556 0.889242
333 1 3.41898 6.98695 1.74439
334 1 4.02887 7.57329 12.8698
335 1 3.30514 7.6656 2.38677
336 1 3.93789 7.03524 0.841563
337 1 0.0659379 7.76932 1.62059
338 1 0.476001 8.38995 12.7704
339 1 0.0472829 8.29485 2.41679
340 1 0.626296 7.92928 0.71138
341 1 1.04105 7.79019 1.66152
342 1 1.75752 8.69921 12.8339
343 1 1.0723 8.40518 2.36855
344 1 1.71747 8.09276 0.74159
345 1 2.17882 8.07188 1.61561
346 1 2.93284 8.6685 0.0661792
347 1 2.18568 8.60035 2.4597
348 1 2.79363 7.9862 0.765661
349 1 3.2859 8.25733 1.68237
350 1 3.99466 8.8128 0.118275
351 1 2.79887 9.90614 3.15625
352 1 3.891 8.18114 0.764446
353 1 0.627937 5.0168 3.22839
354 1 0.648112 4.4969 4.05157
355 1 1.66474 5.22551 3.20763
356 1 1.64514 4.7767 4.09799
357 1 2.77752 5.32104 3.41381
358 1 2.78988 4.63776 4.07013
359 1 3.90965 5.2494 3.27612
360 1 3.85175 4.87533 4.20463
361 1 0.549118 6.08509 3.27866
362 1 0.494949 5.52813 4.11582
363 1 1.64561 6.33664 3.22706
364 1 1.67536 5.85902 4.13723
365 1 2.68172 6.47202 3.22707
366 1 2.72801 5.91155 4.04338
367 1 3.92444 6.36409 3.31997
368 1 3.85049 5.89393 4.13752
369 1 0.483921 7.17154 3.20804
370 1 0.560168 6.72336 4.13142
371 1 1.62799 7.41394 3.32129
372 1 1.66759 6.90349 4.11204
373 1 2.73313 7.46833 3.23774
374 1 2.75254 6.98473 4.13816
375 1 5.04754 7.59655 3.13687
376 1 3.31038 7.11424 4.80816
377 1 0.630031 8.27034 3.24725
378 1 0.483956 7.73041 4.1245
379 1 1.66832 8.56328 3.18819
380 1 1.74874 7.94444 3.97527
381 1 3.92594 8.64921 3.30593
382 1 2.86005 8.17501 4.11883
383 1 3.82476 7.52128 3.26482
384 1 3.9501 8.10795 4.11823
385 1 4.46832 4.84378 1.65198
386 1 4.99449 5.29107 0.0174261
387 1 4.39776 5.30852 2.28747
388 1 5.0168 4.70647 0.863147
389 1 5.62284 5.30874 2.49465
390 1 6.096 4.61512 0.879077
391 1 6.20215 5.24322 3.22276
392 1 5.57236 4.863 1.61723
393 1 6.76479 4.58939 1.61194
394 1 6.72043 5.12118 12.2584
395 1 6.77585 5.2454 2.3275
396 1 7.2477 4.54416 0.729898
397 1 7.83271 4.40362 1.63292
398 1 8.42265 4.8 12.8677
399 1 7.84485 5.01729 2.48102
400 1 8.37698 4.34292 0.828954
401 1 4.58447 6.10202 1.7225
402 1 5.04942 6.36263 0.0395856
403 1 4.4353 6.58333 2.47931
404 1 5.07725 5.83495 0.841036
405 1 5.60535 5.97119 1.80085
406 1 6.28965 6.33261 12.9451
407 1 6.22344 6.35208 3.33628
408 1 6.15118 5.73551 0.820749
409 1 6.68289 5.75793 1.6787
410 1 7.30175 5.47347 0.880643
411 1 6.88031 6.3135 2.46267
412 1 7.32669 5.15571 12.7918
413 1 7.88607 5.60841 1.62224
414 1 8.30919 5.96969 0.0304842
415 1 7.85744 6.07978 2.52087
416 1 8.38254 5.40366 0.770438
417 1 4.5187 7.15183 1.6257
418 1 5.10341 7.62029 0.132496
419 1 4.33724 7.76295 2.46075
420 1 4.95719 6.95087 0.765243
421 1 5.71927 6.46316 2.62804
422 1 6.17512 7.41036 0.0438574
423 1 5.5344 7.06552 1.67796
424 1 6.03895 6.84564 0.868303
425 1 6.62731 6.8447 1.71337
426 1 7.33442 7.16252 0.0278994
427 1 6.80785 7.42227 2.42197
428 1 7.07194 6.84052 0.961218
429 1 7.84128 6.5624 1.5636
430 1 8.40626 6.57633 0.831498
431 1 7.86017 7.16717 2.48092
432 1 9.0116 6.56016 1.67866
433 1 4.45753 8.2528 1.55724
434 1 4.98322 8.87388 12.9016
435 1 4.50265 8.74938 2.4306
436 1 5.01552 8.23455 0.75241
437 1 5.69261 7.5177 2.64335
438 1 6.10678 8.44073 12.9395
439 1 5.51491 7.98626 1.68746
440 1 6.13404 8.04947 0.934023
441 1 6.75471 8.06027 1.61791
442 1 7.17149 8.41072 0.106587
443 1 6.58112 8.49984 2.57001
444 1 7.30209 7.83597 0.736539
445 1 7.7826 7.66114 1.66191
446 1 8.38191 7.67362 0.820561
447 1 7.80848 8.81797 1.65584
448 1 8.35658 7.1387 0.0574474
449 1 5.00595 5.35269 3.16442
450 1 5.07753 4.34317 3.18576
451 1 5.99788 5.70454 3.98622
452 1 6.10389 4.08884 3.21119
453 1 7.35584 5.09219 3.29153
454 1 7.21459 4.47144 4.01438
455 1 8.35532 5.44883 4.10731
456 1 8.351 3.26961 4.06146
457 1 4.83761 5.87771 3.98085
458 1 4.51324 5.43769 5.81544
459 1 6.01659 6.95353 4.0537
460 1 6.28027 7.52344 3.33085
461 1 7.22544 6.11662 3.3888
462 1 8.4903 5.98337 6.54915
463 1 8.32256 6.08793 3.44562
464 1 7.92151 6.16546 5.69078
465 1 4.97574 8.03404 4.02486
466 1 5.05461 6.47599 3.31426
467 1 6.09701 8.71274 3.38947
468 1 4.98073 6.87897 4.12319
469 1 6.06262 8.06813 4.18269
470 1 7.33935 7.25 3.3242
471 1 8.388 7.12639 3.26845
472 1 8.52612 6.52732 4.21748
473 1 5.03174 8.66356 3.28873
474 1 4.48701 8.22649 5.03791
475 1 5.43812 8.0324 4.90194
476 1 6.80134 7.90434 4.77374
477 1 7.23986 8.38891 3.19045
478 1 6.70107 9.09576 4.94532
479 1 7.77886 8.40259 2.45791
480 1 8.42516 7.72848 4.01252
481 1 8.98726 4.32983 1.57781
482 1 9.52399 4.68877 0.00440253
483 1 8.91972 4.86341 2.27375
484 1 10.2142 4.05079 1.53334
485 1 10.6697 2.84879 0.832558
486 1 10.0042 4.56368 12.1226
487 1 9.95766 4.58904 2.52647
488 1 10.6557 4.74406 0.00389987
489 1 10.7105 4.00533 0.706019
490 1 12.2918 4.84971 12.2407
491 1 11.1627 4.65685 2.32394
492 1 11.8023 4.66468 0.0471214
493 1 12.3105 4.24161 1.64304
494 1 12.9426 4.8477 12.9506
495 1 12.2566 4.78883 2.47716
496 1 12.8311 4.2616 0.92422
497 1 9.03852 5.51174 1.47917
498 1 9.48053 5.74327 12.8363
499 1 9.45663 5.89792 3.15748
500 1 9.58908 5.19148 0.731331
501 1 10.0566 5.18541 1.68346
502 1 10.6508 5.79229 12.8832
503 1 10.0571 5.76578 2.43173
504 1 10.7115 5.1157 0.845649
505 1 11.2145 5.36557 1.65103
506 1 11.2397 5.73264 12.0796
507 1 11.1995 5.78185 2.4235
508 1 11.7388 5.01876 0.851401
509 1 12.1954 5.48058 1.61794
510 1 12.8651 5.94406 0.0545628
511 1 12.4008 5.7939 2.58256
512 1 12.8594 5.45259 0.813037
513 1 8.88192 5.99241 2.38117
514 1 9.38061 7.00051 12.901
515 1 8.95732 7.07226 2.45689
516 1 9.50502 6.33191 0.647075
517 1 9.98783 6.36975 1.57665
518 1 10.5828 6.86655 0.0742304
519 1 10.1373 6.83449 2.41054
520 1 10.5913 6.14883 0.826119
521 1 11.1432 6.40985 1.48578
522 1 11.678 6.99176 0.172036
523 1 11.28 6.85435 2.47789
524 1 12.9159 6.6315 0.834447
525 1 12.3016 6.43807 1.56483
526 1 12.2118 7.07007 12.1004
527 1 12.2671 6.87281 2.37161
528 1 12.7375 7.07326 12.841
529 1 8.86252 7.64837 1.70293
530 1 10.1943 7.9596 12.2102
531 1 8.43845 8.28136 3.30017
532 1 9.5327 7.54603 0.852537
533 1 10.0752 7.49947 1.55265
534 1 10.6632 8.07758 0.0867065
535 1 10.0927 7.90074 2.46986
536 1 10.5754 7.44815 0.788844
537 1 11.1255 7.35657 1.56854
538 1 11.7265 7.56391 0.740878
539 1 11.2661 7.89895 2.38189
540 1 11.7366 6.22342 0.734016
541 1 12.3456 7.48811 1.60377
542 1 12.8929 8.1359 0.0548381
543 1 12.3397 8.03741 2.50937
544 1 12.8519 7.67348 0.864733
545 1 9.51579 4.76711 3.26254
546 1 9.53435 4.14695 4.08321
547 1 10.5876 4.68891 3.26528
548 1 10.5422 3.4697 3.34412
549 1 11.5963 4.6356 3.19297
550 1 11.7935 3.97981 4.18014
551 1 12.8313 4.82254 3.17666
552 1 12.8845 4.23879 4.01496
553 1 9.59685 6.30899 4.12162
554 1 9.4437 5.23293 4.08554
555 1 10.5534 5.72941 3.30236
556 1 10.6834 5.19596 4.09984
557 1 11.6345 5.84091 3.2295
558 1 11.7902 5.05912 3.93727
559 1 12.9212 6.12643 3.28549
560 1 12.8421 5.43203 3.98696
561 1 9.57731 8.16198 3.30474
562 1 9.46852 6.94169 3.24936
563 1 10.6682 6.86324 3.22728
564 1 10.6297 6.38969 3.97072
565 1 11.7468 6.91634 3.33732
566 1 11.7583 6.35097 4.09532
567 1 12.8177 7.07971 3.25691
568 1 12.7858 6.47499 4.19533
569 1 8.99975 8.14847 2.57084
570 1 9.10165 7.75771 4.85635
571 1 10.7824 8.02227 3.17096
572 1 10.6701 7.49169 4.07488
573 1 11.7907 8.09312 3.26962
574 1 11.8112 7.51178 4.08636
575 1 12.9892 8.23845 3.27482
576 1 12.8658 7.67887 3.98283
577 1 13.2854 8.94599 1.61062
578 1 0.594388 9.41317 0.0451539
579 1 13.3798 9.51225 2.44665
580 1 0.595868 8.90277 0.866554
581 1 1.0109 9.04395 1.66832
582 1 1.58696 9.75429 12.8863
583 1 1.14078 9.51711 2.44702
584 1 1.55946 9.13391 0.849023
585 1 2.24973 9.20708 1.55276
586 1 2.70096 9.84364 0.0797882
587 1 2.26826 9.66867 2.39074
588 1 2.65825 9.19257 0.686917
589 1 3.26412 9.27068 1.59538
590 1 3.80721 9.94589 12.916
591 1 3.33904 8.80825 2.59511
592 1 3.85464 9.44875 0.742463
593 1 13.4283 9.99886 1.61219
594 1 0.654807 10.745 0.00838724
595 1 0.0400385 10.5563 2.4704
596 1 0.590119 10.1443 0.676499
597 1 1.02155 10.113 1.5802
598 1 1.69333 10.8438 12.939
599 1 1.17188 10.644 2.46157
600 1 1.65451 10.2847 0.886143
601 1 2.14866 10.2047 1.62773
602 1 2.81948 10.9662 12.9028
603 1 2.1604 10.9085 2.38865
604 1 2.76788 10.3958 0.784852
605 1 3.29685 10.3247 1.63256
606 1 3.84157 11.0434 0.0223
607 1 3.30299 10.9949 2.28892
608 1 4.01541 10.4687 0.885765
609 1 0.0316929 11.0233 1.55201
610 1 0.517387 11.8998 12.8801
611 1 13.4073 11.651 2.35351
612 1 0.559035 11.2829 0.776779
613 1 1.06891 11.2173 1.59435
614 1 2.14661 12.0832 12.1767
615 1 0.996881 11.7286 2.43555
616 1 1.67971 11.3599 0.841924
617 1 2.20039 11.4509 1.64493
618 1 2.75164 12.6315 0.737183
619 1 2.22139 12.0543 2.51687
620 1 2.73012 11.5715 0.813555
621 1 3.31279 11.537 1.58403
622 1 3.95392 12.1255 0.0500272
623 1 3.41224 12.0945 2.51629
624 1 4.00912 11.5525 0.881557
625 1 13.3627 12.248 1.63638
626 1 0.467863 12.7708 12.7901
627 1 0.150495 12.8732 2.33328
628 1 0.599366 12.351 0.902554
629 1 1.24006 12.3437 1.57788
630 1 1.69443 0.596298 0.0206641
631 1 1.15588 12.9318 2.3455
632 1 1.68831 12.4177 0.678545
633 1 2.22091 12.492 1.62175
634 1 1.69499 13.0238 12.9134
635 1 2.25169 13.1049 2.50436
636 1 2.77503 13.1606 12.857
637 1 3.25939 12.6291 1.75089
638 1 3.96039 13.1705 12.868
639 1 3.33825 13.1969 2.38174
640 1 3.71419 12.6555 0.842043
641 1 0.45793 9.48404 3.15294
642 1 0.448063 8.86858 3.95791
643 1 1.6956 9.74737 3.2936
644 1 1.74447 9.00635 4.03538
645 1 2.75725 8.54057 3.24066
646 1 2.89141 9.35155 3.88
647 1 3.37475 9.86369 2.31132
648 1 4.01113 9.85967 3.20934
649 1 0.513609 10.7075 3.28766
650 1 0.453235 9.95399 3.96496
651 1 1.67192 10.8524 3.3154
652 1 1.62653 10.2505 4.0189
653 1 2.83218 10.9236 3.2417
654 1 2.83912 10.3898 4.11688
655 1 3.8491 10.9258 3.16847
656 1 4.00753 10.5481 3.95239
657 1 0.532012 11.7919 3.23062
658 1 0.484339 11.3164 4.03246
659 1 1.61167 12.0292 3.24319
660 1 1.63052 11.4024 4.01893
661 1 2.70311 11.9227 3.20464
662 1 2.69345 11.412 4.10524
663 1 3.83008 12.1145 3.29605
664 1 3.91757 11.5398 4.06296
665 1 0.55959 12.8768 3.25133
666 1 0.340215 12.4249 4.20699
667 1 1.59836 13.1342 3.28398
668 1 1.69282 12.475 4.07693
669 1 2.8292 13.0841 3.31347
670 1 2.89545 12.5602 4.11173
671 1 3.98398 13.231 3.13459
672 1 4.07803 12.729 4.01867
673 1 4.38338 9.27669 1.50804
674 1 5.07376 9.75458 0.0146376
675 1 4.47341 9.86265 2.29772
676 1 5.13874 9.2685 1.04747
677 1 5.79342 9.25326 1.68294
678 1 6.10581 10.9092 0.0157192
679 1 5.57127 9.75615 2.56691
680 1 6.22483 9.12308 0.688686
681 1 6.80134 9.08161 1.53019
682 1 7.26066 9.42803 12.8652
683 1 6.88894 9.52466 2.44229
684 1 7.38353 9.02837 0.783283
685 1 8.41013 8.7666 0.899291
686 1 8.41622 9.41848 12.9326
687 1 7.81159 10.1079 1.59123
688 1 8.44176 8.1616 12.9294
689 1 4.60682 10.4961 1.61642
690 1 4.90764 11.0552 0.0362625
691 1 4.36493 11.0056 2.33027
692 1 5.04366 10.3041 0.694762
693 1 5.61946 10.2704 1.56057
694 1 5.61413 10.8915 12.2156
695 1 5.53277 10.8372 2.30793
696 1 6.06344 9.7512 0.0482886
697 1 6.14326 10.3772 0.75521
698 1 7.38787 10.5612 0.100937
699 1 6.62909 10.7001 2.46337
700 1 6.76395 10.2504 1.71578
701 1 7.15249 10.012 0.792787
702 1 8.51131 10.3208 0.0424686
703 1 7.86516 10.6388 2.42867
704 1 8.43663 9.88523 0.922559
705 1 4.38535 11.6797 1.67705
706 1 4.91088 12.0625 0.0744946
707 1 4.56101 12.209 2.45711
708 1 5.19249 11.464 0.836611
709 1 5.55973 11.4403 1.65247
710 1 6.13373 12.0276 12.9343
711 1 5.60375 12.0768 2.31917
712 1 6.29219 11.4295 0.835975
713 1 6.75195 11.3675 1.63513
714 1 7.03835 11.6234 12.8738
715 1 6.47646 11.8427 2.41857
716 1 7.3507 11.3137 0.895501
717 1 7.92948 11.1537 1.72293
718 1 8.18983 11.4265 0.0527772
719 1 7.65885 11.6708 2.57719
720 1 8.36314 10.9778 0.836912
721 1 4.40864 12.6699 1.49641
722 1 5.05796 13.0528 0.0159084
723 1 4.46922 13.3205 2.33373
724 1 5.01806 12.6147 0.90303
725 1 5.56588 12.715 1.60821
726 1 6.10284 13.0959 0.0813058
727 1 5.71841 13.2283 2.44008
728 1 6.16527 12.4955 0.858973
729 1 6.81438 12.4931 1.67227
730 1 7.21958 12.9169 0.0993254
731 1 6.72973 13.0527 2.4055
732 1 7.30446 12.3348 0.724809
733 1 7.85625 12.2382 1.70637
734 1 8.36435 12.6045 0.0358824
735 1 7.87634 12.7912 2.40512
736 1 8.41956 12.1458 0.81635
737 1 4.98793 9.8178 3.35402
738 1 4.99891 9.17703 4.13528
739 1 6.19719 9.80393 3.15613
740 1 6.13074 9.25879 4.18662
741 1 7.89596 9.58262 2.39352
742 1 7.12964 8.99115 3.94857
743 1 8.3655 9.37657 3.24615
744 1 8.91066 8.84428 4.94788
745 1 5.07259 10.9354 3.15275
746 1 5.0994 10.5468 4.08138
747 1 6.06777 10.9016 3.2836
748 1 6.18515 10.2407 3.95888
749 1 7.13436 10.7058 3.20571
750 1 7.39253 10.1015 4.0117
751 1 8.29037 10.5063 3.30576
752 1 8.59276 10.0407 4.15078
753 1 4.95517 11.9346 3.24287
754 1 4.95309 11.5295 4.04149
755 1 6.07001 11.9766 3.30148
756 1 6.14717 11.3896 4.068
757 1 7.19518 11.962 3.19861
758 1 7.33075 11.1999 4.01078
759 1 8.4483 11.5919 3.14886
760 1 8.36983 11.1156 3.98278
761 1 5.06919 13.0801 3.17952
762 1 5.03119 12.5622 4.01915
763 1 6.09366 13.0425 3.26574
764 1 6.27013 12.5125 4.05106
765 1 7.17478 13.013 3.27847
766 1 7.32334 12.2921 4.15492
767 1 8.26409 12.8442 3.22333
768 1 8.39484 12.1838 4.00962
769 1 8.94907 8.72611 1.80044
770 1 9.50448 8.73933 0.857543
771 1 8.96397 9.33956 2.54678
772 1 9.48585 9.14344 0.100611
773 1 10.0515 8.51174 1.58285
774 1 10.0606 9.09337 12.1458
775 1 10.0061 9.16814 2.41653
776 1 10.6876 8.69358 0.836171
777 1 11.1694 8.42163 1.69188
778 1 11.8004 9.33914 0.0166991
779 1 11.122 9.04078 2.34767
780 1 11.8014 8.72825 0.853845
781 1 12.2939 8.53913 1.59303
782 1 12.9006 9.39758 0.00117003
783 1 12.3284 9.18907 2.4228
784 1 12.9625 8.91281 0.829129
785 1 8.9719 9.80893 1.64778
786 1 9.51233 10.425 0.15101
787 1 8.9187 10.4355 2.46851
788 1 9.58736 9.80967 0.794696
789 1 10.049 9.71404 1.67257
790 1 10.6626 9.63521 0.877356
791 1 10.0991 10.1984 2.57354
792 1 10.7019 9.09993 12.9492
793 1 11.2391 9.71215 1.75344
794 1 11.7021 10.3071 0.0140006
795 1 11.268 10.3477 2.44159
796 1 11.8069 9.73417 0.931084
797 1 12.3431 9.80365 1.68489
798 1 12.9364 10.4789 12.8955
799 1 12.3689 10.4361 2.48471
800 1 12.9077 10.0508 0.767498
801 1 8.97606 10.8698 1.61914
802 1 9.41654 11.4665 0.00511021
803 1 9.02101 11.4706 2.44656
804 1 9.51763 10.9922 0.891531
805 1 10.1562 10.7638 1.78082
806 1 10.6094 11.3037 12.9025
807 1 10.1182 11.5374 2.48788
808 1 10.6027 10.7529 0.811916
809 1 11.1988 10.8174 1.67039
810 1 11.7815 11.3213 0.132413
811 1 11.2183 11.4866 2.42117
812 1 11.7815 10.8524 0.927782
813 1 12.3103 10.8865 1.65309
814 1 12.8878 11.5705 12.867
815 1 12.3579 11.5313 2.31757
816 1 12.9444 11.1675 0.826187
817 1 8.90456 12.0891 1.73432
818 1 9.55097 12.5746 0.046329
819 1 9.00682 12.6775 2.50097
820 1 9.47724 12.0106 0.785495
821 1 10.0113 11.8393 1.58697
822 1 10.6444 12.4377 0.108435
823 1 10.2574 12.4923 2.46488
824 1 10.6526 11.805 0.869103
825 1 11.2186 11.9403 1.56893
826 1 13.3718 12.8393 11.9429
827 1 11.4224 12.6122 2.42662
828 1 11.796 11.9756 0.706785
829 1 12.2839 12.0913 1.58193
830 1 11.7039 12.5626 0.0293663
831 1 12.4302 12.7994 2.38626
832 1 12.8802 12.1587 0.755286
833 1 9.51863 9.08887 3.31006
834 1 10.14 8.41052 4.92904
835 1 10.5926 9.01835 3.28344
836 1 10.6152 8.51176 3.99713
837 1 11.7667 9.13419 3.13956
838 1 11.8053 8.64596 4.0532
839 1 12.8041 9.26393 3.22829
840 1 12.8746 8.77002 4.0863
841 1 9.40649 10.2774 3.30725
842 1 9.62136 9.73648 4.03886
843 1 10.7337 10.1311 3.21435
844 1 10.6857 9.5954 4.06755
845 1 11.7789 10.2985 3.27278
846 1 11.7747 9.65007 4.0503
847 1 12.8922 10.3613 3.30459
848 1 12.8503 9.78606 4.11365
849 1 9.57263 11.2927 3.23161
850 1 9.40995 10.9712 4.21344
851 1 10.6432 11.2694 3.26631
852 1 10.5867 10.6605 4.11795
853 1 11.7343 11.3749 3.19899
854 1 11.7945 10.8786 3.99257
855 1 12.9209 11.5545 3.17999
856 1 12.7892 11.0018 4.016
857 1 9.42216 12.5342 3.23101
858 1 9.55453 11.9817 3.96673
859 1 10.7107 12.5589 3.3438
860 1 10.6576 11.7971 3.97674
861 1 11.9103 12.511 3.18359
862 1 11.5677 11.89 4.02948
863 1 12.9592 12.6323 3.21982
864 1 12.7046 12.0037 4.0139
865 1 13.3731 13.3835 4.76397
866 1 0.126777 0.460087 5.57143
867 1 1.06432 0.0149523 4.98253
868 1 1.18322 0.735476 5.47512
869 1 2.20301 0.317836 4.80216
870 1 2.26228 0.76381 5.86697
871 1 3.3173 0.349887 4.76478
872 1 3.32477 0.924431 5.65385
873 1 13.4183 1.09267 4.76647
874 1 13.3485 1.59824 5.62874
875 1 1.12368 1.48049 4.93362
876 1 1.14156 1.88849 5.72862
877 1 2.21638 1.28941 4.80936
878 1 2.29628 1.79701 5.70306
879 1 3.26881 1.45398 4.80225
880 1 3.35326 1.98906 5.65951
881 1 0.0928104 2.17295 4.90823
882 1 0.0932429 2.77275 5.71411
883 1 1.24216 2.54444 4.77771
884 1 1.21018 2.90337 5.68251
885 1 2.24041 2.38006 4.95167
886 1 2.42316 3.0347 5.59504
887 1 3.39988 3.08399 5.68431
888 1 4.03286 3.19154 6.4886
889 1 13.3857 3.23696 4.89839
890 1 13.3959 3.85586 5.5609
891 1 1.0398 3.46761 4.81616
892 1 1.1284 3.95826 5.78636
893 1 2.24285 3.63564 4.97955
894 1 2.16877 4.23526 5.66498
895 1 3.54626 3.61373 4.83882
896 1 3.36983 4.17185 5.60609
897 1 0.0255012 0.0333891 8.06528
898 1 0.474125 0.619548 6.37228
899 1 0.687112 13.4127 7.43273
900 1 1.29452 0.0744326 8.09102
901 1 1.52033 0.762272 6.36726
902 1 1.83736 0.251629 7.14251
903 1 2.34171 0.27 8.14139
904 1 2.94094 0.836824 6.42319
905 1 2.76279 0.264275 7.21531
906 1 3.36943 0.451613 8.1255
907 1 3.96109 0.910508 6.49253
908 1 3.97051 0.419532 7.28563
909 1 0.13622 1.12823 8.13121
910 1 0.528379 1.6844 6.40888
911 1 0.560013 1.02756 7.25531
912 1 1.16888 1.1912 8.00287
913 1 1.67091 1.90778 6.55435
914 1 1.71026 1.29738 7.19332
915 1 2.21532 1.3821 8.13345
916 1 2.78871 2.14211 6.5524
917 1 2.80333 1.41056 7.31034
918 1 3.47836 1.02447 8.96246
919 1 4.06022 2.64974 7.35188
920 1 3.90158 1.63608 7.24495
921 1 0.176938 2.17639 8.06132
922 1 0.591497 2.86919 6.55712
923 1 0.69576 2.29937 7.1436
924 1 1.15671 2.31637 8.11624
925 1 1.81492 2.98235 6.45197
926 1 1.81769 2.4207 7.45272
927 1 2.36536 2.48493 8.22399
928 1 2.8538 3.20045 6.45117
929 1 2.87158 2.60174 7.35027
930 1 3.28473 1.9774 8.8301
931 1 3.44124 3.75159 8.18377
932 1 3.44895 2.68063 8.19736
933 1 13.4224 3.31818 8.05386
934 1 0.617135 3.93197 6.5963
935 1 0.650731 3.43762 7.45798
936 1 1.27737 3.50082 8.19698
937 1 1.66512 4.17019 6.64498
938 1 1.692 3.36228 7.19662
939 1 2.27489 3.60215 8.14089
940 1 2.88861 4.23926 6.43844
941 1 2.77178 3.64168 7.37539
942 1 3.46151 4.41591 8.97708
943 1 4.53104 4.2384 5.64036
944 1 3.8421 2.05983 6.43802
945 1 4.45141 0.435788 4.8506
946 1 4.50758 1.08037 5.61209
947 1 5.51616 0.270764 4.85251
948 1 5.60805 0.604345 5.72827
949 1 6.67164 0.22872 4.72679
950 1 6.62899 0.605354 5.69366
951 1 7.92921 13.3792 4.85876
952 1 7.93729 0.393774 5.55817
953 1 3.83178 1.44893 3.96739
954 1 4.0423 3.91839 4.03466
955 1 5.70723 1.31641 4.8775
956 1 5.61048 1.86478 5.63112
957 1 6.76674 1.25202 4.73513
958 1 6.62273 2.86266 5.606
959 1 7.82374 1.06877 4.99678
960 1 7.92717 1.71656 5.702
961 1 4.561 2.05971 5.70261
962 1 4.98616 3.63599 7.2891
963 1 5.55869 2.47171 4.8695
964 1 5.1607 3.17536 6.32163
965 1 6.73958 2.31452 4.81615
966 1 6.64315 3.96265 5.59153
967 1 7.87356 2.18715 4.8659
968 1 7.6848 2.76114 5.67129
969 1 5.59258 3.72607 4.85392
970 1 3.88322 4.24097 6.44813
971 1 5.0238 4.72858 4.06488
972 1 5.53356 4.77519 4.85438
973 1 6.76038 3.4876 4.85515
974 1 6.67349 4.69662 4.87941
975 1 7.88504 3.93626 5.60161
976 1 8.30171 3.7779 6.38587
977 1 4.46262 0.365446 7.94897
978 1 5.00718 0.909437 6.47709
979 1 5.18884 0.331818 7.29872
980 1 5.72872 0.306818 7.98579
981 1 6.14223 0.798106 6.56181
982 1 6.364 0.0744068 7.16088
983 1 6.57307 12.9688 8.94789
984 1 7.3442 0.591417 6.3613
985 1 6.81284 0.054031 8.16611
986 1 7.92548 13.2948 8.16153
987 1 8.44269 0.33839 6.5746
988 1 8.38434 13.1602 7.29835
989 1 4.50174 1.39148 8.1343
990 1 5.09987 2.04132 6.49712
991 1 5.06059 1.54015 7.26267
992 1 5.58968 1.34235 8.13954
993 1 6.16132 1.85194 6.36601