data.lammps (converted from cfg to data.lammps)
    
2298  atoms
1  atom types
0.0   13.4375  xlo xhi
0.0   13.4375  ylo yhi
0.0   12.952  zlo zhi
0.0  0.0 0.0 xy xz yz
    
    
    
Atoms
  
1 1 0.0483587 13.328 1.6615
2 1 0.533458 0.591886 0.0150533
3 1 13.4124 0.352182 2.3844
4 1 0.680569 13.4071 0.888819
5 1 1.18276 0.057057 1.65891
6 1 2.08483 0.683199 12.1956
7 1 1.02612 0.616183 2.50404
8 1 1.78961 0.0854288 0.84877
9 1 2.24784 0.166628 1.79327
10 1 2.85574 1.42747 0.616612
11 1 2.04547 0.825347 2.38369
12 1 2.77721 0.327174 0.822969
13 1 3.25475 0.377175 1.64533
14 1 3.85323 0.919785 0.0173694
15 1 3.22507 1.03763 2.47302
16 1 3.88141 0.381563 0.912155
17 1 13.3603 0.926158 1.62654
18 1 0.629234 1.63306 0.0867526
19 1 0.0719464 1.47872 2.39279
20 1 0.479355 0.979126 0.973369
21 1 1.18636 1.31678 1.56965
22 1 1.69519 1.66165 0.057214
23 1 1.05363 1.70261 2.44856
24 1 1.74209 1.24051 0.915028
25 1 2.34392 1.42542 1.52735
26 1 2.72615 2.00462 12.9407
27 1 2.17815 1.90305 2.43544
28 1 3.31167 2.21274 2.52541
29 1 3.82898 1.47588 0.881833
30 1 4.04201 1.98982 0.0252716
31 1 4.99554 2.05459 3.25629
32 1 4.99902 1.47655 0.890298
33 1 0.00857613 2.07996 1.65367
34 1 0.438609 2.85769 12.9133
35 1 13.4364 2.60929 2.47399
36 1 0.545913 2.2151 0.773663
37 1 1.57381 2.34763 0.696186
38 1 1.60097 2.928 0.0458949
39 1 1.06211 2.85066 2.41349
40 1 2.19303 2.48017 1.66471
41 1 2.737 2.43852 0.859558
42 1 2.6375 3.0175 0.0403036
43 1 2.26133 3.04338 2.43081
44 1 3.37922 2.57776 1.51794
45 1 3.37432 1.48569 1.75358
46 1 3.78037 3.11223 12.9294
47 1 2.6031 3.14866 3.30913
48 1 3.99611 2.66009 0.792594
49 1 13.3784 3.05074 1.54056
50 1 0.596656 3.39603 0.788371
51 1 0.0618513 3.69195 2.46851
52 1 1.00101 3.40935 1.70486
53 1 1.14335 2.33967 1.60923
54 1 1.61617 4.04639 12.9406
55 1 1.01495 4.04955 2.38082
56 1 1.56008 3.60769 0.858993
57 1 2.158 3.53649 1.54433
58 1 2.83078 4.14582 0.0910855
59 1 2.18488 4.1618 2.45229
60 1 2.75246 3.5323 0.840102
61 1 3.30056 3.7602 1.57618
62 1 3.82351 4.29402 0.0146001
63 1 3.35788 4.25322 2.46241
64 1 3.86055 3.80078 0.834196
65 1 0.433695 0.444293 3.28456
66 1 0.651829 13.357 4.06903
67 1 1.57219 0.773065 3.28042
68 1 1.62821 0.158462 4.00345
69 1 2.71604 0.699275 3.18086
70 1 2.82546 0.363662 4.10828
71 1 3.8903 0.984059 3.21413
72 1 3.89955 0.409951 4.08975
73 1 0.552112 1.55867 3.35804
74 1 0.524709 1.0102 4.13316
75 1 1.50134 1.96596 3.21908
76 1 1.58055 1.27033 4.07777
77 1 2.6332 1.9244 3.20044
78 1 2.71143 1.3611 3.97369
79 1 3.813 2.65889 4.0241
80 1 4.53438 2.02809 2.46842
81 1 0.476975 2.75871 3.28438
82 1 0.463361 2.16449 4.02119
83 1 1.55835 2.9808 3.21908
84 1 1.67204 2.34611 4.14423
85 1 2.78648 2.62757 3.98552
86 1 3.29465 2.60756 4.85767
87 1 3.27898 3.16828 2.37164
88 1 4.40391 2.61849 4.76959
89 1 0.471616 3.90721 3.34404
90 1 0.442814 3.32406 4.06009
91 1 1.47134 4.00959 3.21006
92 1 1.59194 3.41487 4.05088
93 1 2.65091 4.28613 3.25099
94 1 2.67989 3.7609 4.0968
95 1 3.85988 4.21966 3.19947
96 1 3.81015 3.1444 3.24597
97 1 4.39495 0.442926 1.66296
98 1 4.96733 0.95193 0.055812
99 1 4.44632 0.871808 2.52282
100 1 5.04407 0.249994 0.845132
101 1 5.47683 0.207765 1.63436
102 1 6.1309 0.778809 12.9226
103 1 5.68917 0.756386 2.36484
104 1 6.10069 0.190954 0.827679
105 1 6.57861 0.206835 1.56328
106 1 7.32395 0.526163 0.090116
107 1 6.7221 0.549283 2.36485
108 1 7.82787 0.0309744 1.60772
109 1 7.32181 13.3556 0.866802
110 1 7.80822 0.634194 12.184
111 1 7.70917 0.607096 2.38454
112 1 8.40862 13.2367 0.85552
113 1 4.44717 1.48858 1.63646
114 1 5.15359 1.90662 12.8831
115 1 3.9273 2.03342 3.21127
116 1 5.56142 1.38917 1.6737
117 1 5.98579 1.26815 0.925533
118 1 6.18058 2.32721 0.801834
119 1 5.63851 1.92383 2.40376
120 1 6.25001 1.79763 0.0100145
121 1 6.72455 1.26289 1.5877
122 1 7.29441 1.78093 12.9233
123 1 6.7688 1.72978 2.36193
124 1 7.12991 1.13635 0.784654
125 1 7.86195 1.01513 1.47595
126 1 8.94487 1.39305 12.0814
127 1 7.82131 1.57302 2.43416
128 1 8.45062 1.00786 0.783874
129 1 4.52598 2.60515 1.74697
130 1 5.09471 3.0774 0.0772141
131 1 4.34485 3.15834 2.46487
132 1 4.99278 2.50146 0.796156
133 1 5.61943 2.58632 1.6583
134 1 6.11749 2.95853 12.9246
135 1 5.58786 3.1299 2.47133
136 1 6.67571 2.43474 1.64367
137 1 7.77588 2.76055 2.4443
138 1 7.87202 2.79684 12.1145
139 1 6.79182 3.01391 2.43748
140 1 7.25671 2.32466 0.755998
141 1 7.86942 2.16161 1.61269
142 1 8.43856 2.76456 12.9237
143 1 7.76139 3.29174 1.63279
144 1 8.45758 2.16529 0.961523
145 1 4.50073 3.64937 1.63406
146 1 5.065 4.30353 12.9506
147 1 4.53635 4.25594 2.36132
148 1 4.91108 3.65933 0.731757
149 1 5.58217 3.55924 1.56025
150 1 6.2335 4.17658 0.00114964
151 1 5.57332 4.13828 2.45896
152 1 6.07081 3.61564 0.712699
153 1 7.27434 3.96967 0.0208303
154 1 6.74636 3.97489 12.0821
155 1 6.60871 3.557 1.40279
156 1 7.28661 3.37844 0.865978
157 1 7.7809 3.91679 2.50689
158 1 8.31956 3.93252 12.8806
159 1 8.35704 3.78025 3.24858
160 1 8.36471 3.20986 0.677982
161 1 5.25605 0.998187 3.09831
162 1 5.02126 0.452668 3.89145
163 1 6.30342 0.841192 3.32505
164 1 6.12857 0.0559331 4.12579
165 1 7.36661 0.595098 3.27526
166 1 7.26744 0.139833 4.13582
167 1 8.51274 0.357885 3.19991
168 1 8.4826 13.2772 4.16654
169 1 4.97334 1.49852 3.97852
170 1 4.41128 1.46458 4.77012
171 1 6.20454 1.84818 3.18434
172 1 6.18512 1.19164 4.12797
173 1 7.26668 1.6895 3.18508
174 1 7.34107 1.27607 4.09097
175 1 8.35579 1.5252 3.25731
176 1 8.43734 0.897613 4.00907
177 1 4.99006 3.13178 3.23668
178 1 4.98113 2.72654 3.98551
179 1 6.18022 2.90173 3.15411
180 1 6.07078 2.33431 3.99372
181 1 7.26137 2.74073 3.27901
182 1 7.25958 2.283 4.12766
183 1 8.31035 2.73097 3.10124
184 1 8.41287 2.13202 3.97869
185 1 4.93252 3.7438 4.06633
186 1 4.46708 3.64612 4.90168
187 1 6.64416 3.94592 2.39147
188 1 6.05572 3.50932 3.90246
189 1 7.26011 3.97844 3.2719
190 1 7.19655 3.37768 4.08299
191 1 8.41403 4.94672 3.27359
192 1 7.76657 3.13172 4.85322
193 1 8.92148 13.0677 1.65891
194 1 8.9496 0.390291 12.1967
195 1 8.86061 0.28133 2.38069
196 1 9.47575 0.056178 0.850414
197 1 10.1097 13.0052 1.5857
198 1 10.6521 0.118634 12.904
199 1 10.0038 0.0879357 2.3321
200 1 10.6017 13.0769 0.759872
201 1 11.132 13.0626 1.57143
202 1 11.2767 0.20289 12.2634
203 1 11.1608 0.106194 2.47466
204 1 11.7506 13.0033 0.849721
205 1 12.3441 13.2116 1.56296
206 1 11.7666 0.184486 0.0668426
207 1 12.1424 0.399551 2.43659
208 1 12.8405 12.8406 0.0430335
209 1 8.934 0.902096 1.57555
210 1 9.49714 2.59318 0.0654187
211 1 8.83346 1.3453 2.40666
212 1 9.58098 0.500216 0.053942
213 1 9.98808 0.777189 1.51632
214 1 10.6341 1.84117 0.856955
215 1 10.0399 1.18073 2.45901
216 1 10.6282 0.705743 0.839243
217 1 11.0984 0.755677 1.67306
218 1 11.8834 1.2 0.202695
219 1 11.1395 1.36326 2.45596
220 1 11.7994 0.71145 1.05717
221 1 12.3592 0.8433 1.71052
222 1 12.9342 0.850072 0.320935
223 1 12.2198 1.4337 2.47698
224 1 12.8808 0.0429855 0.711725
225 1 9.11447 1.9448 1.67732
226 1 8.99072 2.42508 12.1574
227 1 8.8123 2.36558 2.42868
228 1 9.39119 1.74455 0.763709
229 1 10.015 1.82548 1.5381
230 1 9.9832 2.60377 12.1458
231 1 10.1021 2.34037 2.48584
232 1 10.6507 2.89743 0.920685
233 1 11.2361 1.82581 1.67819
234 1 11.7897 2.33323 12.9447
235 1 11.2116 2.4849 2.32531
236 1 11.7673 1.9072 0.877289
237 1 12.4445 2.01217 1.54639
238 1 12.9232 2.31818 0.195641
239 1 12.3815 2.48084 2.42588
240 1 12.9334 1.65275 0.792456
241 1 9.01796 3.05672 1.73474
242 1 9.43713 3.81474 0.0427428
243 1 8.8789 3.61838 2.40714
244 1 9.44005 3.06087 0.87971
245 1 10.1651 2.91301 1.61243
246 1 10.6198 3.40655 0.009677
247 1 9.99321 3.51434 2.37481
248 1 10.5721 2.26478 0.0090205
249 1 11.3748 3.1249 1.7661
250 1 11.8245 3.46361 0.115399
251 1 11.1349 3.66167 2.61097
252 1 11.658 2.9523 0.909669
253 1 12.3896 3.04199 1.54144
254 1 12.991 3.70496 12.7306
255 1 12.3116 3.61301 2.36279
256 1 12.7544 3.08298 0.649522
257 1 9.66946 0.197084 3.24098
258 1 9.51234 12.9792 3.97713
259 1 10.615 0.286199 3.27702
260 1 10.673 13.086 4.04601
261 1 11.7383 0.250042 3.29627
262 1 11.7234 13.0704 4.1546
263 1 12.803 0.289742 3.32199
264 1 12.9324 13.2802 4.14447
265 1 9.52181 1.44174 3.03368
266 1 9.44049 0.799754 3.95913
267 1 10.7321 1.30045 3.35059
268 1 10.6929 0.700092 4.24127
269 1 11.7288 1.42782 3.29422
270 1 11.7048 0.774681 4.04372
271 1 12.872 1.33984 3.20726
272 1 12.8022 0.936727 4.02186
273 1 9.39953 2.572 3.20378
274 1 9.43272 1.83083 3.9308
275 1 10.6177 2.4866 3.21421
276 1 10.4571 1.88046 3.96119
277 1 11.6777 2.38908 3.22717
278 1 11.7025 1.89674 4.10928
279 1 12.8113 2.44374 3.28511
280 1 12.8262 2.02431 4.04961
281 1 9.44492 3.65434 3.10554
282 1 9.46192 3.10019 4.0023
283 1 10.6236 3.49311 3.27135
284 1 10.5319 2.86985 4.05334
285 1 11.8951 3.41626 3.21238
286 1 11.7359 2.9693 4.06676
287 1 12.8397 3.65804 3.15973
288 1 12.9283 3.17257 4.0617
289 1 13.3814 4.25695 1.74114
290 1 0.504784 5.05259 0.12622
291 1 13.4316 4.95294 2.33856
292 1 0.462869 4.37978 0.839249
293 1 1.09308 4.58864 1.52761
294 1 1.59143 5.12701 12.841
295 1 1.08953 4.99225 2.41813
296 1 1.61112 4.70222 0.65973
297 1 2.12675 4.55475 1.64924
298 1 2.85146 5.31139 0.0149175
299 1 2.14553 5.31437 2.37024
300 1 2.66764 4.70846 0.821737
301 1 3.30733 4.86869 1.5544
302 1 4.00812 5.42347 12.9186
303 1 3.25214 5.38603 2.42065
304 1 3.97144 4.90164 0.808207
305 1 13.3366 5.56687 1.56305
306 1 0.533596 6.22765 0.00313993
307 1 13.3369 6.07139 2.48768
308 1 0.52894 5.68925 0.746727
309 1 0.976736 5.5717 1.65488
310 1 1.75002 6.29052 0.00594701
311 1 1.1693 6.15919 2.43147
312 1 1.65745 5.80073 0.823054
313 1 2.22118 5.76826 1.58678
314 1 2.80697 6.40283 12.8741
315 1 2.36511 6.38019 2.48972
316 1 2.79882 5.86074 0.753966
317 1 3.29126 5.91207 1.59446
318 1 4.06814 6.57333 12.8033
319 1 3.43428 6.45949 2.37616
320 1 3.86409 6.03204 0.698021
321 1 0.0646576 6.56368 1.59601
322 1 0.646406 7.39319 12.9346
323 1 0.139225 7.05342 2.40848
324 1 0.696874 6.87772 0.783463
325 1 1.25568 6.67932 1.68311
326 1 1.83928 7.55279 12.8785
327 1 1.16586 7.42763 2.19916
328 1 1.58174 6.86339 0.782617
329 1 2.34929 6.86846 1.5842
330 1 2.8203 7.51694 0.159017
331 1 2.28229 7.46977 2.44035
332 1 2.78167 6.97847 0.84227
333 1 3.50816 7.05696 1.65738
334 1 3.91082 7.73378 0.0542001
335 1 3.4837 7.60229 2.4049
336 1 3.94685 7.08699 0.755115
337 1 0.0773906 7.64876 1.57977
338 1 0.655023 8.43023 12.876
339 1 0.0173746 8.17066 2.40491
340 1 0.60601 7.91028 0.847017
341 1 1.29299 8.00703 1.60477
342 1 1.59734 8.57747 12.9487
343 1 1.06091 8.55613 2.39458
344 1 1.75537 8.04271 0.751077
345 1 2.3344 8.03587 1.60868
346 1 2.7918 8.80601 12.9167
347 1 2.23378 8.54621 2.36544
348 1 2.79043 8.26037 0.697084
349 1 3.44081 8.10617 1.55446
350 1 3.95257 8.96851 12.9483
351 1 2.8325 9.8411 3.13806
352 1 3.89921 8.29231 0.771508
353 1 0.440712 4.96016 3.26478
354 1 0.404478 4.46599 4.08971
355 1 1.61878 5.27801 3.28213
356 1 1.60296 4.58103 3.97281
357 1 2.7155 5.35291 3.21829
358 1 2.81856 4.8628 3.99486
359 1 3.92853 5.3372 3.14607
360 1 3.91502 4.84765 4.07141
361 1 0.571811 6.02567 3.24708
362 1 0.582876 5.59757 4.09307
363 1 1.75155 6.42077 3.15996
364 1 1.67485 5.75517 4.11463
365 1 2.82443 6.4977 3.30162
366 1 2.81848 5.79981 4.0734
367 1 3.7965 6.54229 3.28691
368 1 3.93777 5.94878 3.97128
369 1 0.519181 7.17057 3.2659
370 1 0.584555 6.6971 4.131
371 1 1.63743 7.37598 3.12038
372 1 1.66731 6.79372 3.97085
373 1 2.83025 7.5603 3.22573
374 1 2.63845 7.10982 4.07974
375 1 5.01432 7.51659 3.23525
376 1 3.37195 6.99125 4.80651
377 1 0.639446 8.28374 3.22545
378 1 0.513898 7.78946 4.01208
379 1 1.63497 8.52491 3.23992
380 1 1.74709 7.97203 3.9742
381 1 4.00354 8.76959 3.19139
382 1 2.92799 8.09759 4.06667
383 1 3.91799 7.60157 3.22864
384 1 3.89561 8.25698 3.99554
385 1 4.39136 4.77097 1.58781
386 1 4.98011 5.31424 0.105268
387 1 4.43494 5.28705 2.38217
388 1 5.08463 4.80026 0.917205
389 1 5.46768 5.26938 2.33606
390 1 6.19513 4.77152 0.83807
391 1 6.11674 5.21633 3.22814
392 1 5.65085 4.60208 1.67412
393 1 6.84254 4.64924 1.66964
394 1 6.87382 5.10577 12.1448
395 1 6.61704 5.21867 2.38742
396 1 7.34921 4.52895 0.819468
397 1 7.74984 4.36118 1.60819
398 1 8.52663 4.94566 12.8421
399 1 7.90947 4.99788 2.42933
400 1 8.47178 4.26107 0.887954
401 1 4.41842 5.86844 1.54418
402 1 5.14492 6.42257 0.102706
403 1 4.51505 6.47997 2.31105
404 1 5.13544 5.94488 0.866841
405 1 5.67334 5.84038 1.70343
406 1 6.15841 6.36536 0.0435647
407 1 6.19415 6.40642 3.14489
408 1 6.20774 5.70415 0.807557
409 1 6.74682 5.7676 1.68899
410 1 7.32146 5.68639 0.936174
411 1 6.81277 6.34159 2.44764
412 1 7.33143 5.11802 0.0242447
413 1 8.00437 5.49838 1.65946
414 1 8.46631 5.97344 0.13039
415 1 7.88881 6.12605 2.44444
416 1 8.35415 5.28165 0.752077
417 1 4.55264 7.08256 1.62711
418 1 5.01611 7.63947 12.938
419 1 4.59882 7.71452 2.39945
420 1 4.99006 7.02429 0.81203
421 1 5.53462 6.34294 2.46035
422 1 6.12965 7.48377 0.0391
423 1 5.67948 7.02003 1.62774
424 1 6.20276 6.86238 0.908819
425 1 6.74296 6.89856 1.67142
426 1 7.31384 7.27517 12.9096
427 1 6.81933 7.43188 2.50865
428 1 7.18143 6.70182 0.80876
429 1 7.92741 6.67033 1.63411
430 1 8.39849 6.58389 0.788566
431 1 7.97067 7.25656 2.43919
432 1 8.99728 6.5699 1.54337
433 1 4.50533 8.29168 1.60914
434 1 4.97088 8.74697 12.8996
435 1 4.6286 8.78987 2.44746
436 1 5.00724 8.09931 0.860837
437 1 5.6628 7.47011 2.42898
438 1 6.06952 8.55703 12.9128
439 1 5.62926 8.1757 1.61919
440 1 6.14313 8.08701 0.800888
441 1 6.75542 7.97839 1.6018
442 1 7.32767 8.49538 12.8506
443 1 6.83138 8.44887 2.42524
444 1 7.27215 7.89054 0.749294
445 1 7.77975 7.71718 1.53196
446 1 8.46091 7.73007 0.869889
447 1 7.85813 8.92824 1.57218
448 1 8.33499 7.16216 0.0544145
449 1 4.97931 5.44009 3.21
450 1 5.05206 4.25418 3.27632
451 1 6.22537 5.86138 3.91433
452 1 6.2501 4.07065 3.27512
453 1 7.31065 4.99981 3.16913
454 1 7.29594 4.55563 4.01794
455 1 8.43681 5.51376 4.14777
456 1 8.45242 3.20144 4.11217
457 1 5.08318 5.86236 4.09095
458 1 4.47756 5.42137 5.58261
459 1 6.25071 6.97456 3.9745
460 1 6.07462 7.59521 3.35419
461 1 7.32622 6.10689 3.26387
462 1 8.41458 5.95309 6.35881
463 1 8.4601 5.92376 3.25177
464 1 7.75635 6.25915 5.65514
465 1 5.08409 8.16817 4.02492
466 1 4.93705 6.44257 3.22018
467 1 6.14594 8.64312 3.23299
468 1 5.19083 6.91535 3.97411
469 1 6.32467 8.21058 4.00714
470 1 7.31787 7.3644 3.21763
471 1 8.4093 7.10661 3.20971
472 1 8.40559 6.68873 4.01616
473 1 5.10102 8.65081 3.2659
474 1 4.51883 8.20249 4.84082
475 1 5.62556 7.99486 4.82781
476 1 6.67601 7.8299 4.88998
477 1 7.40008 8.45571 3.1942
478 1 6.76777 9.04403 4.86416
479 1 7.86893 8.25619 2.30109
480 1 8.62016 7.74841 3.97002
481 1 9.01173 4.19618 1.64567
482 1 9.69442 4.84961 12.7108
483 1 8.97903 4.84371 2.39661
484 1 9.64916 4.11898 0.888819
485 1 10.2619 4.08868 1.66074
486 1 10.5064 4.70198 12.8769
487 1 10.013 4.64571 2.43043
488 1 10.6506 3.96659 0.654642
489 1 11.2572 4.10547 1.59342
490 1 11.6751 4.63016 0.0831781
491 1 11.2721 4.63406 2.55858
492 1 11.8778 4.16501 0.762562
493 1 12.389 4.17752 1.64006
494 1 12.7354 4.9386 12.9012
495 1 12.2578 4.74375 2.38226
496 1 12.9171 4.14477 0.640388
497 1 8.99998 5.54731 1.70584
498 1 9.60908 5.96215 0.0183171
499 1 9.64845 5.90975 3.32061
500 1 9.35563 5.24454 0.741209
501 1 9.94968 5.14009 1.42903
502 1 10.5362 5.77803 12.8952
503 1 10.1383 5.62697 2.3924
504 1 10.63 5.17195 0.877464
505 1 11.1201 5.11376 1.6032
506 1 11.7729 5.77177 12.9139
507 1 11.1876 5.72303 2.4073
508 1 11.6178 5.40038 0.771521
509 1 12.2107 5.29333 1.49694
510 1 12.7902 6.01815 0.0782377
511 1 12.3672 5.79953 2.45655
512 1 12.9043 5.31278 0.83174
513 1 9.06822 6.05558 2.56855
514 1 9.54932 6.96988 12.8536
515 1 9.02508 7.00989 2.3812
516 1 9.53677 6.39942 0.781727
517 1 10.1411 6.22686 1.52914
518 1 10.6651 6.82491 0.00385567
519 1 10.1551 6.81088 2.33355
520 1 10.6922 6.31886 0.891124
521 1 11.2906 6.35654 1.62667
522 1 11.862 7.00134 12.9288
523 1 11.1886 7.01162 2.35777
524 1 11.7615 6.44016 0.750087
525 1 12.2367 6.3704 1.6311
526 1 13.0711 7.21923 0.0354823
527 1 12.4282 6.95419 2.43978
528 1 12.8547 6.54754 0.860383
529 1 9.0304 7.66642 1.62902
530 1 10.1649 8.16554 12.0407
531 1 8.41194 8.31374 3.23032
532 1 9.50618 7.43526 0.721091
533 1 10.0744 7.45515 1.62418
534 1 10.6202 7.92976 0.042355
535 1 10.179 8.02693 2.41718
536 1 10.6207 7.36235 0.785451
537 1 11.2331 7.53743 1.55081
538 1 11.7075 8.0739 0.000808526
539 1 11.2913 8.04393 2.45202
540 1 11.8434 7.54591 0.818073
541 1 12.4208 7.50175 1.63234
542 1 12.8915 8.26394 12.9127
543 1 12.1815 8.19693 2.29179
544 1 12.827 7.75313 0.809549
545 1 9.3283 4.66707 3.17533
546 1 9.49281 4.16052 4.16412
547 1 10.4744 4.63431 3.26247
548 1 10.5364 4.03297 3.97329
549 1 11.7258 4.68906 3.39396
550 1 11.6096 4.02229 4.0099
551 1 12.7948 4.70368 3.12387
552 1 12.7773 4.19078 4.04791
553 1 9.51058 6.40954 4.14072
554 1 9.53103 5.20562 3.9555
555 1 10.6321 5.79461 3.31291
556 1 10.6223 5.21507 4.04605
557 1 11.721 5.94741 3.11608
558 1 11.754 5.38312 3.9841
559 1 12.8968 5.94186 3.32302
560 1 12.8531 5.26687 4.01209
561 1 9.51129 7.87041 3.06882
562 1 9.58466 6.93942 3.27117
563 1 10.6338 6.84827 3.18153
564 1 10.797 6.41857 4.05044
565 1 11.7718 6.95564 3.09119
566 1 11.8156 6.41911 4.01963
567 1 12.8249 7.22197 3.18744
568 1 12.8624 6.58322 3.96944
569 1 8.96539 8.21531 2.4888
570 1 8.92398 7.61212 4.84889
571 1 10.6225 8.08868 3.28267
572 1 10.7781 7.50401 3.94366
573 1 11.7171 7.97147 3.37713
574 1 11.8092 7.42641 4.13376
575 1 12.7762 8.1721 3.13677
576 1 12.9148 7.72056 4.08491
577 1 0.0463086 8.86725 1.85234
578 1 0.620454 9.51153 0.0506013
579 1 13.3357 9.54505 2.49988
580 1 0.458588 8.96155 0.821753
581 1 1.07056 9.05497 1.53944
582 1 1.73727 9.67855 12.9048
583 1 1.09484 9.63908 2.40513
584 1 1.66508 9.12085 0.767609
585 1 2.30648 9.21595 1.57568
586 1 2.78168 9.86041 12.8945
587 1 2.13772 9.68425 2.45627
588 1 2.81905 9.35488 0.786934
589 1 3.37253 9.2505 1.71194
590 1 3.91391 9.99801 12.8449
591 1 3.37154 8.72885 2.51529
592 1 3.89935 9.4224 0.792126
593 1 13.3413 9.90458 1.55688
594 1 0.585195 10.7165 12.8655
595 1 0.0605119 10.5919 2.33098
596 1 0.572599 10.0764 0.778314
597 1 1.08587 10.2375 1.60572
598 1 1.67903 10.8391 12.9267
599 1 1.10489 10.8206 2.44986
600 1 1.61276 10.2158 0.781052
601 1 2.17706 10.2659 1.75076
602 1 2.83611 10.8028 12.9341
603 1 2.19242 10.9473 2.33798
604 1 2.76964 10.4228 0.902468
605 1 3.39415 10.4907 1.52227
606 1 3.82564 11.0162 0.0411696
607 1 3.3725 11.0546 2.49677
608 1 3.97453 10.4147 0.884712
609 1 13.3816 11.1564 1.56772
610 1 0.459458 11.7726 12.9404
611 1 0.0512924 11.5865 2.47212
612 1 0.469256 11.2022 0.758661
613 1 1.04218 11.3263 1.6062
614 1 2.28013 11.9407 12.1624
615 1 1.21284 11.8172 2.39565
616 1 1.61654 11.3665 0.831907
617 1 2.17575 11.53 1.63549
618 1 2.77677 12.7417 0.875917
619 1 2.32752 12.0628 2.42205
620 1 2.81268 11.4334 0.791559
621 1 3.37201 11.5533 1.61035
622 1 3.89916 12.2638 12.9186
623 1 3.29488 12.2201 2.40789
624 1 3.96928 11.5578 0.687458
625 1 13.4048 12.2494 1.52439
626 1 0.435176 12.9806 0.0934045
627 1 13.4015 12.6505 2.4719
628 1 0.623223 12.4016 0.831521
629 1 1.09381 12.4636 1.73572
630 1 1.57999 0.671871 0.14714
631 1 1.12369 13.0135 2.57835
632 1 1.57134 12.4102 0.71762
633 1 2.14125 12.5567 1.48233
634 1 1.64746 13.0489 12.8427
635 1 2.33729 13.0319 2.49829
636 1 2.84047 13.0977 12.8895
637 1 3.38288 12.6806 1.57302
638 1 3.90999 13.2769 0.0605949
639 1 3.41593 13.2706 2.40524
640 1 3.9778 12.6045 0.879092
641 1 0.545448 9.4649 3.20496
642 1 0.558174 8.85002 3.9208
643 1 1.64912 9.61312 3.23168
644 1 1.60597 9.25137 4.07479
645 1 2.71994 8.71438 3.21084
646 1 2.7859 9.18205 3.98616
647 1 3.30639 9.89742 2.29515
648 1 3.85714 9.89821 3.23481
649 1 0.540884 10.569 3.23591
650 1 0.533615 10.0392 4.04215
651 1 1.70057 10.6977 3.18352
652 1 1.58982 10.2613 3.96257
653 1 2.67871 10.9577 3.26747
654 1 2.76808 10.3111 3.95551
655 1 3.80227 10.9547 3.26407
656 1 3.96754 10.4812 4.11295
657 1 0.686745 11.7956 3.25331
658 1 0.488528 11.1542 3.95502
659 1 1.7241 11.9484 3.26183
660 1 1.64456 11.3797 3.9435
661 1 2.82252 11.9676 3.29873
662 1 2.76967 11.4198 4.21176
663 1 3.89915 12.1294 3.34939
664 1 3.92024 11.5314 4.01386
665 1 0.476307 12.842 3.24953
666 1 0.614837 12.3173 4.04495
667 1 1.71893 13.0137 3.22058
668 1 1.73348 12.5324 4.13364
669 1 2.91891 13.1797 3.31339
670 1 2.81181 12.6158 4.04658
671 1 3.94376 13.3492 3.25576
672 1 3.92423 12.7036 4.11914
673 1 4.42711 9.31114 1.65183
674 1 4.98757 9.84316 0.0795329
675 1 4.35943 9.87792 2.46312
676 1 4.9617 9.23563 0.77695
677 1 5.5545 9.32025 1.55269
678 1 6.18591 10.8279 12.9447
679 1 5.56475 9.86287 2.52327
680 1 6.14901 9.18761 0.718958
681 1 6.65946 9.06722 1.62278
682 1 7.25325 9.62531 12.9458
683 1 6.69502 9.56175 2.40945
684 1 7.22438 9.03922 0.858503
685 1 8.32927 8.86036 0.762057
686 1 8.40219 9.49858 12.9193
687 1 7.73845 10.0263 1.61894
688 1 8.37655 8.18907 12.9497
689 1 4.59409 10.4668 1.64187
690 1 5.06791 11.0297 12.9469
691 1 4.49503 11.0646 2.48329
692 1 5.03814 10.4252 0.787895
693 1 5.67558 10.3672 1.62419
694 1 5.59972 10.9612 12.0909
695 1 5.58004 10.9942 2.35049
696 1 6.06627 9.79428 12.9133
697 1 6.15208 10.2758 0.755397
698 1 7.34285 10.743 12.8603
699 1 6.65382 10.6878 2.46942
700 1 6.73696 10.2567 1.58496
701 1 7.25918 10.1709 0.723744
702 1 8.42232 10.5549 0.0417799
703 1 7.88078 10.6019 2.4551
704 1 8.34884 10.0725 0.863966
705 1 4.44596 11.5523 1.55662
706 1 5.14769 12.155 0.0148606
707 1 4.34743 12.1051 2.50901
708 1 4.98549 11.5413 0.82712
709 1 5.64544 11.4783 1.47443
710 1 6.21376 12.0246 12.9335
711 1 5.47367 12.0324 2.49537
712 1 6.24696 11.4315 0.707941
713 1 6.64019 11.3458 1.71596
714 1 7.24663 11.7872 0.0322909
715 1 6.88571 11.8239 2.54969
716 1 7.25669 11.2655 0.918009
717 1 7.85414 11.1303 1.73657
718 1 8.41038 11.5895 12.8877
719 1 7.92194 11.8051 2.55612
720 1 8.3175 11.2359 0.854833
721 1 4.57434 12.6116 1.67934
722 1 5.09566 13.3421 12.9257
723 1 4.48628 13.1471 2.42846
724 1 5.07493 12.6564 0.778093
725 1 5.6265 12.4987 1.65922
726 1 6.34778 13.1264 0.0928879
727 1 5.699 13.0912 2.47623
728 1 6.21093 12.5348 0.83787
729 1 6.69991 12.4779 1.65664
730 1 7.33968 12.8415 12.8884
731 1 6.84978 12.8554 2.43921
732 1 7.33651 12.333 0.864378
733 1 7.88656 12.1714 1.60868
734 1 8.45453 12.7545 12.9381
735 1 7.83237 12.8294 2.34445
736 1 8.51893 12.2393 0.832754
737 1 5.0272 9.77346 3.28323
738 1 5.16435 9.20673 4.1044
739 1 6.20111 9.76214 3.22004
740 1 6.19948 9.25388 4.01193
741 1 7.80861 9.47517 2.39045
742 1 7.37381 8.99792 4.06044
743 1 8.23371 9.36809 3.21915
744 1 9.07311 8.80163 4.92703
745 1 4.98359 10.885 3.29127
746 1 5.03572 10.3093 4.08741
747 1 6.01884 10.8504 3.22309
748 1 6.21045 10.2848 4.12585
749 1 7.20177 10.6857 3.21724
750 1 7.3453 10.1404 4.0347
751 1 8.48657 10.4678 3.24423
752 1 8.3988 9.89664 4.03627
753 1 5.09866 12.1592 3.29504
754 1 5.03109 11.4874 4.01961
755 1 6.21342 12.0136 3.12277
756 1 6.1465 11.3999 4.06756
757 1 7.43363 11.7677 3.22313
758 1 7.2616 11.1922 4.09318
759 1 8.55326 11.6688 3.28564
760 1 8.32229 11.0738 4.00342
761 1 5.05298 13.3222 3.18766
762 1 5.20034 12.7797 3.96083
763 1 6.3379 13.1844 3.26004
764 1 6.31013 12.4097 3.9584
765 1 7.40473 12.9309 3.40351
766 1 7.24464 12.287 4.08533
767 1 8.31717 12.8601 3.29245
768 1 8.33793 12.1541 4.06625
769 1 8.87961 8.81762 1.62242
770 1 9.38972 8.59058 0.67052
771 1 8.94115 9.31444 2.48839
772 1 9.6255 9.29182 12.8996
773 1 10.0027 8.54046 1.56691
774 1 10.1205 9.14365 12.2085
775 1 10.1174 9.12387 2.335
776 1 10.5032 8.57384 0.684096
777 1 11.1954 8.68634 1.4731
778 1 11.8984 9.13061 12.9228
779 1 11.1993 9.0872 2.38641
780 1 11.7245 8.64327 0.801332
781 1 12.4268 8.73264 1.57714
782 1 12.9211 9.40464 0.0531733
783 1 12.303 9.33006 2.50169
784 1 12.9027 8.78338 0.830438
785 1 8.9189 9.79431 1.55513
786 1 9.49464 10.4048 0.063796
787 1 9.01005 10.3628 2.50365
788 1 9.5267 9.66792 0.778603
789 1 10.1109 9.6635 1.46497
790 1 10.6178 9.74952 0.836254
791 1 10.1463 10.1295 2.32264
792 1 10.7661 9.25367 0.0947465
793 1 11.2399 9.80235 1.71666
794 1 11.7373 10.2964 12.9124
795 1 11.2315 10.2073 2.5241
796 1 11.6869 9.7683 0.728821
797 1 12.2237 9.72809 1.63575
798 1 12.9356 10.3879 12.9122
799 1 12.4295 10.4002 2.4317
800 1 12.817 10.0236 0.914962
801 1 8.87294 10.8143 1.63968
802 1 9.49642 11.4401 0.0549941
803 1 8.95777 11.4881 2.32925
804 1 9.57934 10.9471 0.82708
805 1 10.0798 10.9049 1.60072
806 1 10.7166 11.2784 12.933
807 1 10.0695 11.3325 2.42166
808 1 10.658 10.8033 0.833551
809 1 11.27 10.8078 1.65593
810 1 11.7641 11.3646 0.0124968
811 1 11.159 11.3567 2.46762
812 1 11.8156 10.8469 0.866485
813 1 12.3785 10.9434 1.64516
814 1 12.8035 11.7253 0.00582246
815 1 12.2655 11.5624 2.44955
816 1 12.926 11.0529 0.674532
817 1 9.09051 11.9839 1.59339
818 1 9.63002 12.7834 0.19081
819 1 9.01585 12.5604 2.44189
820 1 9.551 12.0754 0.722007
821 1 10.068 11.9532 1.63316
822 1 10.5651 12.3011 0.0869639
823 1 10.1848 12.4229 2.57004
824 1 10.6597 11.8515 0.873988
825 1 11.2028 11.9561 1.70104
826 1 13.3886 12.8398 12.1059
827 1 11.2317 12.4228 2.42792
828 1 11.7725 11.8965 0.926661
829 1 12.3682 12.056 1.70784
830 1 11.7571 12.4828 0.0754608
831 1 12.2722 12.7421 2.43465
832 1 12.8822 12.2304 0.832523
833 1 9.63789 9.08614 3.13657
834 1 10.1531 8.50375 4.89258
835 1 10.6721 9.20833 3.19277
836 1 10.6018 8.69647 4.07163
837 1 11.651 9.12398 3.25183
838 1 11.7624 8.5736 4.06715
839 1 12.8844 9.17405 3.27568
840 1 12.9578 8.75152 4.0993
841 1 9.59091 10.2301 3.2648
842 1 9.49097 9.73364 4.04909
843 1 10.6219 10.2832 3.24613
844 1 10.5501 9.77237 4.12328
845 1 11.7021 10.2089 3.30688
846 1 11.7724 9.68369 4.1692
847 1 12.8667 10.5188 3.21221
848 1 12.755 9.98218 3.98744
849 1 9.56249 11.2289 3.19807
850 1 9.4892 10.8903 4.13487
851 1 10.6731 11.3882 3.27205
852 1 10.6024 10.8524 4.04339
853 1 11.7913 11.4216 3.21305
854 1 11.7244 10.7662 4.0331
855 1 13.0291 11.4945 3.21489
856 1 12.8814 11.0339 4.14609
857 1 9.51364 12.378 3.15212
858 1 9.5704 11.9209 3.94333
859 1 10.6689 12.4693 3.30757
860 1 10.6357 11.9448 4.09595
861 1 11.8089 12.5287 3.31496
862 1 11.7654 11.8534 4.08538
863 1 12.8004 12.6908 3.26301
864 1 12.83 11.9672 3.96448
865 1 0.0682501 0.104185 4.83553
866 1 13.3388 0.492849 5.78707
867 1 1.0777 0.115124 4.93351
868 1 1.16915 0.562736 5.75613
869 1 2.22055 0.284747 4.76726
870 1 2.19276 0.715184 5.65662
871 1 3.41861 0.405219 4.89161
872 1 3.30581 0.922167 5.62323
873 1 0.0349904 1.19213 4.98232
874 1 13.419 1.61495 5.82273
875 1 1.09765 1.18166 4.95599
876 1 1.12619 1.69146 5.74578
877 1 2.2582 1.35482 4.95194
878 1 2.28439 1.93879 5.68308
879 1 3.28212 1.53824 4.8917
880 1 3.40462 2.12034 5.74015
881 1 13.3983 2.13752 4.86484
882 1 0.0184544 2.57225 5.70164
883 1 1.13391 2.39592 4.87252
884 1 1.11616 2.80136 5.65633
885 1 2.33259 2.49999 4.79276
886 1 2.14714 2.9577 5.75143
887 1 3.33145 3.11269 5.78278
888 1 3.94064 3.26726 6.5415
889 1 13.3708 3.20452 4.85956
890 1 13.2804 3.7514 5.71148
891 1 1.00851 3.47139 4.87917
892 1 1.05845 3.87734 5.6704
893 1 2.18561 3.60188 4.96453
894 1 2.11803 4.18078 5.64518
895 1 3.29318 3.70727 4.90341
896 1 3.41886 4.3055 5.65238
897 1 13.2735 13.4063 8.17522
898 1 0.50632 0.491761 6.40005
899 1 0.404118 13.2999 7.24838
900 1 1.04803 13.4155 8.0498
901 1 1.74368 0.766354 6.56883
902 1 1.61233 0.127576 7.22391
903 1 2.2056 0.138842 8.02237
904 1 2.72705 0.890288 6.40251
905 1 2.83796 0.435004 7.42089
906 1 3.44051 0.342533 8.12478
907 1 3.79525 0.792211 6.52527
908 1 4.04334 0.401209 7.31669
909 1 0.0991782 1.13393 8.11813
910 1 0.532364 1.56881 6.65866
911 1 0.564063 0.911776 7.32657
912 1 1.14614 1.10708 8.23296
913 1 1.68479 1.85603 6.47253
914 1 1.60241 1.28932 7.31311
915 1 2.2132 1.3168 8.1229
916 1 2.76123 1.98423 6.57782
917 1 2.82585 1.35032 7.41328
918 1 3.2316 0.90085 8.90428
919 1 3.85887 2.73105 7.29222
920 1 3.94603 1.4442 7.18106
921 1 13.3875 1.96913 8.08675
922 1 0.523078 2.80644 6.45339
923 1 0.580999 2.26829 7.22973
924 1 1.10862 2.22775 8.15361
925 1 1.56712 2.92739 6.55112
926 1 1.74084 2.38565 7.37333
927 1 2.24051 2.46315 8.20777
928 1 2.68911 3.16588 6.58112
929 1 2.83821 2.42767 7.28685
930 1 3.28038 1.92911 9.14466
931 1 3.23758 3.53494 8.18354
932 1 3.26203 2.47478 8.30648
933 1 13.3674 3.16824 8.31261
934 1 0.499657 3.91301 6.51695
935 1 0.506134 3.32488 7.2766
936 1 1.04669 3.28672 8.07859
937 1 1.57106 4.07385 6.46335
938 1 1.62123 3.49117 7.39
939 1 2.1299 3.49755 8.19047
940 1 2.77943 4.15865 6.4113
941 1 2.72773 3.65551 7.36819
942 1 3.23457 4.22843 8.71492
943 1 4.54998 4.14093 5.59437
944 1 3.98786 1.99558 6.47415
945 1 4.59073 0.330936 4.86344
946 1 4.38991 0.98115 5.71807
947 1 5.54945 0.355011 4.8251
948 1 5.68452 0.740452 5.61926
949 1 6.72511 0.0980213 4.87723
950 1 6.74315 0.775181 5.71438
951 1 7.92094 13.3027 4.91241
952 1 7.81545 0.517453 5.60592
953 1 3.81823 1.50896 4.00962
954 1 3.78736 3.75182 4.10709
955 1 5.46416 1.38049 4.86946
956 1 5.61021 1.86291 5.7029
957 1 6.62115 1.23851 4.87476
958 1 6.64672 2.90229 5.64286
959 1 7.8858 1.10664 4.84556
960 1 7.76525 1.63544 5.73066
961 1 4.41927 1.99825 5.6181
962 1 5.05606 3.68346 7.24392
963 1 5.51338 2.3894 4.76938
964 1 4.99098 3.1653 6.54143
965 1 6.59461 2.4487 4.79031
966 1 6.64818 4.12769 5.59766
967 1 7.90363 2.0939 4.84562
968 1 7.77635 2.63137 5.66283
969 1 5.61026 3.46091 4.80615
970 1 3.9311 4.33674 6.42049
971 1 5.01779 4.8448 3.97551
972 1 5.56033 4.59442 4.7525
973 1 6.66528 3.59022 4.86925
974 1 6.74581 4.68223 4.84892
975 1 7.84491 3.85254 5.5837
976 1 8.33478 3.74745 6.55542
977 1 4.51741 0.367714 8.20678
978 1 4.99329 0.870546 6.37246
979 1 5.05431 0.381902 7.27597
980 1 5.66158 0.352359 8.05104
981 1 6.27995 0.615525 6.46989
982 1 6.2986 0.0841093 7.21381
983 1 6.76354 12.9704 9.03335
984 1 7.39318 0.657857 6.48312
985 1 6.57138 0.061286 8.23027
986 1 7.74034 13.3331 8.09232
987 1 8.36781 0.404853 6.52062
988 1 8.38743 13.3076 7.53633
989 1 4.49761 1.55716 8.07759
990 1 4.99899 2.02535 6.48935
991 1 5.13218 1.42006 7.21287