data.lammps (converted from cfg to data.lammps)
    
2298  atoms
1  atom types
0.0   13.4375  xlo xhi
0.0   13.4375  ylo yhi
0.0   12.952  zlo zhi
0.0  0.0 0.0 xy xz yz
    
    
    
Atoms
  
1 1 13.3423 13.0534 1.67416
2 1 0.399384 0.290056 0.0484161
3 1 13.3042 1.37107 2.47328
4 1 1.04764 0.0171976 1.65327
5 1 1.58008 13.2823 0.747074
6 1 1.20558 0.0665151 11.3587
7 1 1.01413 0.608793 2.44477
8 1 2.78223 1.18916 0.872212
9 1 2.14336 13.4326 1.62225
10 1 2.60486 13.3784 0.821535
11 1 2.26216 0.495357 2.3972
12 1 2.77281 0.518921 0.134245
13 1 3.35498 12.9777 2.32192
14 1 3.80344 0.536929 0.0124791
15 1 3.33926 1.89494 2.48041
16 1 3.21753 0.126332 1.49168
17 1 12.8616 0.811765 0.84381
18 1 1.2032 2.04173 11.2112
19 1 13.4257 0.899805 1.60069
20 1 0.58836 0.957783 0.656416
21 1 1.61902 1.04067 0.717634
22 1 0.565974 3.19783 0.842779
23 1 1.04894 2.05713 1.47111
24 1 1.779 1.73574 12.9004
25 1 2.2009 1.13907 1.62283
26 1 2.30254 1.69228 12.125
27 1 2.14008 1.70164 2.40311
28 1 2.88374 2.86821 3.26567
29 1 3.38133 0.654836 2.31587
30 1 3.7403 1.36786 0.76164
31 1 5.09582 2.14113 3.26493
32 1 5.65442 0.337473 1.59251
33 1 12.8204 2.41062 12.7862
34 1 0.494157 2.12462 0.725299
35 1 13.425 2.4467 2.34587
36 1 12.8714 1.98969 0.882957
37 1 2.0542 2.24413 1.64445
38 1 1.63831 2.89905 12.9223
39 1 1.16292 2.63766 2.35618
40 1 2.68237 2.31951 0.9235
41 1 3.26147 1.32398 1.71326
42 1 2.7821 2.84155 12.8817
43 1 2.33964 2.85723 2.50819
44 1 3.18449 2.42938 1.62193
45 1 2.78674 1.71944 3.19069
46 1 3.83182 2.38575 0.858626
47 1 2.73878 2.33989 3.96778
48 1 3.99908 1.93672 12.9123
49 1 13.36 3.00884 1.59365
50 1 1.17393 3.28716 1.74144
51 1 0.023978 3.54148 2.34791
52 1 1.07457 3.9459 2.46979
53 1 0.595679 1.55139 12.8806
54 1 1.5473 4.05212 0.0637253
55 1 1.63182 3.82856 3.23503
56 1 1.596 3.3219 0.751522
57 1 2.19038 3.41061 1.67213
58 1 2.65114 3.97578 12.9191
59 1 2.19804 3.92066 2.5316
60 1 2.70521 3.40311 0.835771
61 1 3.35372 3.63844 1.67974
62 1 4.34702 4.16666 12.1128
63 1 2.85959 4.00456 3.23253
64 1 3.83713 3.47791 0.731177
65 1 13.3887 0.243055 2.34039
66 1 0.460394 0.268148 3.19372
67 1 1.64835 0.557592 3.15399
68 1 1.53784 13.3732 4.04845
69 1 2.82448 0.59232 3.14024
70 1 2.67013 0.207327 4.05448
71 1 4.04814 1.90624 3.19593
72 1 3.88106 0.852204 3.30873
73 1 0.593244 1.57684 3.26491
74 1 0.585825 0.878876 3.95064
75 1 1.2174 0.993429 1.51309
76 1 1.66221 1.04869 3.96562
77 1 1.00627 1.56641 2.44078
78 1 2.26762 2.20883 4.91522
79 1 4.43214 2.64485 4.88605
80 1 4.54436 2.00502 2.40545
81 1 0.583044 2.65274 3.21101
82 1 0.519811 2.16134 4.01033
83 1 1.69065 2.72955 3.23804
84 1 1.13917 2.02181 4.8734
85 1 1.66633 1.66071 3.19271
86 1 3.88053 2.51819 4.0464
87 1 3.4183 2.98896 2.33184
88 1 4.51536 3.19807 5.67875
89 1 0.477659 3.70895 3.26807
90 1 0.634383 3.14056 4.07893
91 1 1.63822 3.27323 4.05566
92 1 1.02507 3.11172 5.0125
93 1 2.8506 4.63473 4.09692
94 1 2.72713 3.47397 4.11594
95 1 3.9274 4.18694 3.36957
96 1 3.9013 3.05408 3.1869
97 1 4.45394 0.296873 1.56477
98 1 5.01238 0.357403 0.843047
99 1 4.39027 1.41649 1.65177
100 1 5.59159 1.46754 1.63325
101 1 5.43728 0.942795 2.34815
102 1 6.07069 0.852213 12.9356
103 1 5.04622 13.3166 3.36053
104 1 6.69519 0.251879 1.76844
105 1 6.66457 1.39827 1.55715
106 1 7.23991 0.70379 0.0992474
107 1 6.57161 0.899188 2.38156
108 1 7.77257 0.740508 2.4568
109 1 7.33954 0.204826 1.04519
110 1 7.91699 1.24142 11.3179
111 1 7.12402 0.79082 3.19357
112 1 8.34974 0.121353 0.874741
113 1 4.93101 0.953583 0.0828045
114 1 4.5135 2.04532 12.1714
115 1 3.82795 1.49547 4.16365
116 1 4.88522 1.42408 0.896606
117 1 6.09866 2.03731 0.0877712
118 1 6.09673 2.56307 0.860597
119 1 5.60728 2.05508 2.40243
120 1 5.06197 1.96173 0.0375261
121 1 6.02671 1.37093 0.738383
122 1 6.60334 1.86417 12.0655
123 1 6.64267 1.97119 2.44433
124 1 7.19569 1.28048 0.865212
125 1 7.79817 1.04276 1.68711
126 1 8.40956 1.72263 12.8628
127 1 7.80471 1.71758 2.42929
128 1 7.66468 1.92214 12.1551
129 1 4.37796 2.52517 1.6739
130 1 5.03187 3.05772 0.0447845
131 1 4.51954 3.15331 2.41491
132 1 4.79171 2.57113 0.803511
133 1 5.44303 2.54733 1.45731
134 1 6.12587 3.18312 0.0181162
135 1 5.0012 3.165 3.27972
136 1 6.58818 2.43191 1.63967
137 1 7.86244 2.93476 2.29331
138 1 8.01075 2.9965 12.1276
139 1 6.63016 3.17942 2.42386
140 1 7.12544 1.83769 0.0508451
141 1 7.25726 2.47778 0.693801
142 1 8.30005 2.73348 12.9429
143 1 7.97424 3.505 1.51832
144 1 7.6201 2.39718 1.71514
145 1 4.44667 3.69808 1.4923
146 1 4.95321 4.25128 0.00674758
147 1 4.49115 4.70686 1.60565
148 1 5.07393 3.77822 0.673839
149 1 5.4332 3.60457 1.63926
150 1 6.20229 4.24457 12.767
151 1 5.71442 4.24679 2.51823
152 1 6.18633 3.70544 0.837013
153 1 7.41649 3.99389 12.9411
154 1 6.78738 4.1963 12.07
155 1 6.67302 3.5402 1.63866
156 1 7.325 3.48132 0.887344
157 1 7.84324 4.08358 2.38527
158 1 8.46292 3.89954 0.0299073
159 1 8.35502 3.9185 3.15737
160 1 8.50123 3.30906 0.723298
161 1 5.03722 1.02934 3.22434
162 1 4.53782 13.2413 2.44267
163 1 6.0909 1.00926 3.25841
164 1 6.12851 0.342851 4.15053
165 1 7.22666 1.41482 3.88872
166 1 7.28334 0.252969 3.97042
167 1 8.38685 0.733137 3.2397
168 1 8.47076 0.0534518 3.97742
169 1 4.99417 1.52013 4.0468
170 1 4.41017 1.48264 4.88189
171 1 6.14964 2.04485 3.33453
172 1 6.21127 2.72904 3.98128
173 1 7.39484 2.02514 3.19557
174 1 6.76971 1.57901 4.84538
175 1 8.47087 1.75371 3.22399
176 1 8.26305 1.1892 4.14047
177 1 5.19525 3.80721 4.0479
178 1 5.06939 2.66639 4.09054
179 1 5.60716 3.17294 2.33606
180 1 6.0874 3.19223 3.17308
181 1 7.33768 3.07781 3.17595
182 1 7.25981 2.49274 4.0496
183 1 8.39485 2.80205 3.20561
184 1 8.39442 2.29586 4.1091
185 1 4.97842 4.26303 3.18939
186 1 4.43901 3.74304 4.85687
187 1 6.92789 4.34668 2.19716
188 1 6.13111 3.80503 4.00384
189 1 7.18805 4.15035 3.17891
190 1 7.25069 3.50985 3.96937
191 1 8.37991 4.95247 3.286
192 1 7.75896 3.58394 4.95449
193 1 8.8489 0.0877822 1.62081
194 1 8.97249 0.444963 12.1892
195 1 8.95095 0.584846 2.47181
196 1 9.67229 13.3169 0.817631
197 1 9.99432 0.0577166 1.69117
198 1 10.4774 0.410108 12.9376
199 1 9.9789 0.512962 2.47969
200 1 10.6563 13.136 0.820189
201 1 11.0681 13.2211 1.72087
202 1 11.087 0.352673 12.2309
203 1 11.1446 0.355059 2.33935
204 1 11.6045 13.0973 0.916928
205 1 12.2223 13.0547 1.57454
206 1 11.6461 0.164423 12.9345
207 1 12.1826 0.218902 2.49721
208 1 12.7812 13.1917 0.792772
209 1 8.40407 1.26887 0.785534
210 1 10.1414 2.01855 1.65133
211 1 8.9336 1.13978 1.57106
212 1 9.44406 0.467728 0.0342434
213 1 9.53356 1.0785 0.742091
214 1 10.0529 2.53723 12.1467
215 1 9.93407 1.5507 2.42638
216 1 10.6704 0.813505 0.75814
217 1 11.1004 1.00204 1.64444
218 1 11.7976 1.78504 0.846767
219 1 11.2042 1.42861 2.55687
220 1 11.7641 0.693065 0.871667
221 1 12.2199 0.720871 1.7351
222 1 12.3644 0.278249 12.0523
223 1 12.2861 1.31518 2.41234
224 1 0.50638 13.1847 0.901931
225 1 8.88962 2.22091 1.53468
226 1 9.03387 2.85816 12.1094
227 1 9.51421 2.84958 3.31367
228 1 10.1192 2.65784 2.43505
229 1 10.0212 1.03718 1.52739
230 1 10.0598 2.05145 11.2754
231 1 10.0557 3.18856 1.71684
232 1 10.5741 2.19015 0.784069
233 1 11.178 2.01902 1.59365
234 1 12.24 2.54802 12.2411
235 1 11.293 2.65717 2.46594
236 1 11.7009 2.42288 0.0966486
237 1 12.3131 1.91457 1.5328
238 1 11.8089 3.69232 0.0603485
239 1 12.3727 2.4977 2.35895
240 1 12.8497 1.38315 0.00545249
241 1 9.05321 2.78561 2.47219
242 1 9.55189 3.84788 12.8806
243 1 8.87611 3.36444 1.66889
244 1 9.44998 2.74966 0.0409953
245 1 10.5351 3.25384 0.830241
246 1 10.6415 3.60886 12.8568
247 1 10.0618 4.33936 1.6966
248 1 10.0385 3.2098 11.3926
249 1 11.2 3.81732 2.37782
250 1 12.3174 3.60443 12.1454
251 1 11.2319 4.12805 1.55068
252 1 11.703 4.31102 0.719179
253 1 12.277 3.08924 1.57648
254 1 13.4154 1.82096 1.58591
255 1 12.3426 3.60525 2.46193
256 1 12.7268 3.00931 0.800612
257 1 9.58606 0.448388 3.37937
258 1 9.43968 13.2922 4.07686
259 1 10.6199 0.238563 3.22731
260 1 10.5753 13.2818 4.04661
261 1 11.5794 0.314372 3.26712
262 1 11.7872 13.1523 4.1234
263 1 12.7253 0.219007 3.25214
264 1 12.8181 13.1519 4.06773
265 1 8.87774 1.70813 2.35378
266 1 9.49425 1.05297 4.05306
267 1 10.7027 1.45791 3.23138
268 1 10.675 1.04738 4.09211
269 1 11.9761 1.498 3.34478
270 1 11.7494 0.849577 4.02752
271 1 13.0076 1.23983 3.253
272 1 12.9687 0.782155 4.17187
273 1 9.49616 2.17978 4.03476
274 1 9.59666 1.67019 3.32069
275 1 10.6061 2.53067 3.19128
276 1 10.733 2.15704 4.15474
277 1 11.7709 2.43959 3.22972
278 1 11.724 1.96999 4.15188
279 1 12.8637 2.47098 3.24356
280 1 12.9615 1.86945 3.99014
281 1 10.0961 3.84956 2.44823
282 1 9.42973 3.79913 3.25718
283 1 12.8707 3.50429 3.24261
284 1 10.7116 3.13629 3.95286
285 1 10.5988 3.72775 3.28884
286 1 11.7982 3.01785 4.09132
287 1 11.6516 3.52525 3.1065
288 1 12.846 2.97823 4.07632
289 1 13.3388 4.1946 1.69432
290 1 0.679556 4.80208 0.0697724
291 1 13.3863 4.65282 2.54179
292 1 0.451391 4.23617 0.916595
293 1 1.06197 4.30521 1.56564
294 1 1.7617 5.04733 12.9137
295 1 1.05218 4.93905 2.4519
296 1 1.72004 4.45324 0.86226
297 1 2.23036 4.44732 1.64309
298 1 2.75228 5.15334 0.105029
299 1 2.16962 5.04 2.49878
300 1 2.79847 4.47829 0.79072
301 1 3.35743 4.6709 1.66339
302 1 3.90805 5.234 0.0311918
303 1 3.47803 5.17557 2.50252
304 1 3.83048 4.10297 0.0184807
305 1 0.128694 5.2734 1.54374
306 1 0.630427 6.00878 0.0710033
307 1 0.0435444 5.69993 2.45316
308 1 0.565607 5.32636 0.728086
309 1 1.1126 5.487 1.62746
310 1 1.69932 6.00843 12.8893
311 1 1.17201 6.0048 2.44086
312 1 1.66671 5.57749 0.968253
313 1 2.33323 5.51674 1.62576
314 1 2.78434 6.36362 12.8409
315 1 2.2605 6.19021 2.36763
316 1 2.72718 5.73092 0.756346
317 1 3.34631 5.70044 1.65871
318 1 3.90928 6.32604 12.9508
319 1 3.43415 6.33894 2.35532
320 1 3.83498 5.78647 0.833657
321 1 0.135232 6.37096 1.68993
322 1 0.554377 7.05019 12.8521
323 1 0.045546 7.64549 1.62281
324 1 0.595459 6.54932 0.858668
325 1 1.25462 6.65926 1.64007
326 1 1.62639 7.30891 0.0476104
327 1 1.19072 7.14583 2.52889
328 1 1.75418 6.60117 0.733696
329 1 2.25559 6.71038 1.71674
330 1 2.88461 7.43092 12.8407
331 1 2.43415 7.26344 2.5563
332 1 2.76553 6.77042 0.782895
333 1 3.41475 6.86189 1.69963
334 1 3.99809 7.38232 12.9368
335 1 3.45277 7.58527 2.37163
336 1 3.72803 6.96714 0.838595
337 1 0.00290293 8.75444 1.51941
338 1 0.636827 8.13637 12.8738
339 1 0.511457 8.14381 3.24722
340 1 0.584207 7.62534 0.788314
341 1 1.21124 7.63216 1.68574
342 1 1.70903 8.27694 12.8689
343 1 1.08317 8.31719 2.31706
344 1 1.74565 7.69721 0.891149
345 1 2.32888 7.77178 1.67048
346 1 2.84104 8.50907 12.9519
347 1 2.14331 8.40526 2.42526
348 1 2.82483 7.82398 0.683678
349 1 3.2465 8.07992 1.51967
350 1 3.99733 8.46753 12.9273
351 1 2.78631 9.55628 3.24984
352 1 3.99982 8.02349 0.745689
353 1 0.655152 4.86517 3.35129
354 1 0.637578 4.21168 4.08288
355 1 1.74248 5.09778 3.25131
356 1 1.69893 4.47126 4.00245
357 1 2.86048 5.12981 3.26446
358 1 3.38286 4.54354 4.83203
359 1 3.41839 4.09958 2.4538
360 1 4.04989 5.39611 3.20576
361 1 0.745703 6.17793 3.24546
362 1 0.549649 5.39285 3.97751
363 1 1.80996 6.17493 3.35554
364 1 1.67157 5.53917 4.01645
365 1 2.82471 6.18255 3.2319
366 1 2.83464 5.77202 4.07325
367 1 3.99788 6.38921 3.13067
368 1 3.82614 6.05257 4.00741
369 1 0.621544 6.53708 4.31531
370 1 1.29324 6.4543 4.92293
371 1 1.79874 7.17519 3.26602
372 1 1.75784 6.80019 4.11558
373 1 2.91533 7.26113 3.27213
374 1 2.77584 6.85213 4.19326
375 1 5.16085 7.61068 3.2355
376 1 3.50824 6.88357 4.81577
377 1 0.647267 8.67929 4.05105
378 1 0.570649 7.05478 3.18222
379 1 1.62889 8.33069 3.23329
380 1 1.82006 7.79261 4.13168
381 1 3.98054 8.53715 3.27319
382 1 2.88347 7.89035 4.04308
383 1 3.96041 7.49623 3.17908
384 1 3.97028 8.07795 4.08786
385 1 3.80752 4.72882 0.795731
386 1 5.0905 5.39916 12.8969
387 1 4.65435 5.38072 2.37448
388 1 4.98921 4.87487 0.901841
389 1 5.58957 5.45976 2.37045
390 1 6.02845 4.70816 0.769809
391 1 6.21029 5.3607 3.26921
392 1 5.60948 4.78902 1.67884
393 1 6.65981 4.79677 1.44641
394 1 6.79344 5.4185 12.2779
395 1 6.73948 5.38078 2.46136
396 1 7.22403 4.51179 0.729251
397 1 7.82303 4.65987 1.4736
398 1 8.33195 5.08304 12.8995
399 1 7.9688 5.23443 2.50262
400 1 8.49194 4.49367 0.742744
401 1 4.44861 5.89771 1.51386
402 1 4.98037 6.32299 0.00608809
403 1 4.59206 6.56364 2.33525
404 1 5.12263 5.89432 0.858054
405 1 5.7279 6.02195 1.56674
406 1 6.10794 6.57274 0.0161162
407 1 6.28733 6.41299 3.3193
408 1 6.16298 5.76767 0.716857
409 1 6.79381 5.86587 1.64577
410 1 7.19063 5.88747 0.779028
411 1 6.64443 6.53961 2.42987
412 1 7.24448 5.11352 0.0420323
413 1 7.75942 5.67597 1.68082
414 1 8.34066 6.21339 0.17777
415 1 7.83219 6.38358 2.40849
416 1 8.34762 5.60467 0.857175
417 1 4.48502 7.09931 1.56656
418 1 5.11008 7.66724 0.0227217
419 1 4.63649 7.62438 2.44947
420 1 5.01193 6.9838 0.794502
421 1 5.70274 6.54746 2.48818
422 1 6.25078 7.65204 12.9489
423 1 5.54735 7.04403 1.55534
424 1 6.18476 7.00059 0.867491
425 1 6.65231 7.03157 1.55
426 1 7.34087 7.439 0.112691
427 1 6.79478 7.58665 2.37637
428 1 7.25625 6.90791 0.925913
429 1 7.87447 6.84743 1.66028
430 1 8.4793 6.87598 0.848811
431 1 7.87525 7.46493 2.55021
432 1 8.98171 6.71315 1.62518
433 1 4.56085 8.18998 1.53735
434 1 5.28326 8.74303 12.9351
435 1 4.62215 8.56294 2.3722
436 1 5.24256 8.13344 0.800248
437 1 5.69649 7.65741 2.35782
438 1 6.32072 8.68315 12.9288
439 1 5.82763 8.18568 1.55135
440 1 6.35254 8.18931 0.757933
441 1 6.97406 8.07349 1.56544
442 1 7.44338 8.66975 0.114729
443 1 6.8221 8.65266 2.47008
444 1 7.44722 8.08039 0.784193
445 1 8.08021 7.94316 1.70358
446 1 8.59174 8.00625 0.870212
447 1 7.96832 8.99591 1.67067
448 1 8.47378 7.42325 0.079682
449 1 5.09563 5.41296 3.27474
450 1 4.57273 4.27052 2.45308
451 1 6.17651 5.90432 4.17651
452 1 6.26038 4.3338 3.10965
453 1 7.32631 5.29671 3.26669
454 1 7.28896 4.57505 3.95362
455 1 8.50641 5.51643 4.00254
456 1 8.3574 3.35893 4.10872
457 1 5.02432 6.07874 4.12171
458 1 4.56192 5.29838 5.69986
459 1 6.22089 7.10606 4.1012
460 1 6.22687 7.63571 3.28302
461 1 7.35211 6.37991 3.2462
462 1 8.40194 6.29697 6.40915
463 1 8.46601 6.20839 3.27561
464 1 7.85003 6.32001 5.60477
465 1 5.12396 8.19475 3.92762
466 1 5.11246 6.44102 3.2008
467 1 6.17601 8.63054 3.15917
468 1 5.09292 7.03657 4.02312
469 1 6.24723 8.28537 4.08437
470 1 7.28478 7.40899 3.24797
471 1 8.4701 7.42974 3.30627
472 1 8.43739 6.80939 3.97883
473 1 5.08343 8.85656 3.20482
474 1 4.56386 8.22519 4.73458
475 1 5.60416 8.11728 4.86556
476 1 6.75463 8.19667 4.74161
477 1 7.37304 8.64081 3.27289
478 1 6.62901 9.34987 4.79091
479 1 8.02344 8.53319 2.43862
480 1 8.40174 7.9321 4.1506
481 1 9.02942 3.96538 2.4453
482 1 9.53282 4.85756 12.948
483 1 9.49941 4.35659 0.869156
484 1 9.4845 4.91327 3.16292
485 1 11.1745 3.09024 1.60509
486 1 10.0655 4.94884 12.1181
487 1 10.013 6.47843 1.71793
488 1 10.6838 4.7832 0.0683903
489 1 10.4778 4.29391 0.743767
490 1 12.3769 4.63854 12.0532
491 1 11.253 4.87568 2.42132
492 1 11.7405 4.80923 12.8425
493 1 12.3001 4.07949 1.52786
494 1 12.9297 4.63384 0.0163199
495 1 12.3525 4.73278 2.38488
496 1 12.8819 4.25512 0.780125
497 1 9.00416 5.71521 1.49554
498 1 9.52469 6.16795 0.0536891
499 1 9.51879 6.17949 3.22261
500 1 8.90148 4.47232 1.7489
501 1 9.44393 5.51855 0.741906
502 1 10.7054 5.82676 0.052552
503 1 10.7276 6.03247 3.27283
504 1 10.0229 5.30996 1.58798
505 1 10.6173 5.4119 0.865218
506 1 11.2882 5.88245 12.0487
507 1 11.271 5.39275 1.62138
508 1 11.8197 5.27348 0.908109
509 1 12.4485 5.3078 1.68537
510 1 12.9589 5.7885 12.7988
511 1 13.0195 5.84177 3.19527
512 1 12.8828 5.34825 0.683936
513 1 8.90938 6.11456 2.46471
514 1 9.54412 7.25608 12.8135
515 1 8.88459 7.22956 2.37488
516 1 9.55567 6.77216 0.805564
517 1 10.1377 6.06432 2.39824
518 1 10.7475 6.91353 12.9301
519 1 10.1504 7.25903 2.44018
520 1 10.6463 6.36704 0.906635
521 1 11.3026 6.53331 1.6375
522 1 11.7938 7.05373 0.167741
523 1 11.1981 7.15508 2.46799
524 1 13.0045 6.33962 0.836416
525 1 12.4199 6.34043 1.57131
526 1 12.4539 6.88656 12.128
527 1 12.2964 5.8346 2.46342
528 1 12.8209 6.8157 0.00950433
529 1 9.1826 7.78773 1.71356
530 1 10.3354 8.25708 12.2031
531 1 8.51692 8.46878 3.32631
532 1 9.58497 7.81532 0.753248
533 1 10.2162 7.70325 1.56099
534 1 10.7419 8.07748 0.144404
535 1 10.2649 8.26046 2.56049
536 1 10.7214 7.3776 0.742085
537 1 11.2977 7.66623 1.61101
538 1 11.8905 7.70111 0.839581
539 1 11.4502 8.1539 2.69288
540 1 11.7579 6.36119 0.773705
541 1 12.3726 7.33134 1.64651
542 1 12.8986 8.04925 12.9333
543 1 12.807 8.0568 3.24612
544 1 12.9187 7.42902 0.807527
545 1 9.03867 5.11887 2.44339
546 1 9.53794 3.357 4.14461
547 1 10.1673 5.01993 2.54815
548 1 10.5781 4.30301 4.09467
549 1 11.7804 4.69497 3.18596
550 1 11.6532 4.01631 4.04251
551 1 12.8401 4.70329 3.30893
552 1 12.8085 4.13935 3.98779
553 1 9.49943 6.58662 4.07629
554 1 9.62449 5.62757 3.95594
555 1 10.6965 4.75253 3.26655
556 1 10.6288 5.40722 3.97205
557 1 11.1847 6.09576 2.38406
558 1 11.7376 5.21286 4.08081
559 1 11.7316 5.81274 3.23895
560 1 12.7904 5.32899 4.06334
561 1 9.59119 8.3106 3.40351
562 1 9.52627 7.21505 3.17903
563 1 10.6207 7.07369 3.27234
564 1 10.6212 6.58292 4.16939
565 1 11.7026 7.07826 3.29531
566 1 11.796 6.53875 3.91555
567 1 12.3083 6.9062 2.51657
568 1 0.0891343 6.99277 2.26439
569 1 9.16631 8.44128 2.46739
570 1 9.07493 7.88439 4.74445
571 1 10.8895 8.3199 3.28261
572 1 10.7896 7.69197 3.96332
573 1 12.3923 7.9442 2.44775
574 1 12.3445 8.71523 4.76893
575 1 13.0121 6.94146 3.22537
576 1 12.9035 7.3716 4.02079
577 1 13.4188 8.19451 2.42586
578 1 0.11224 9.24746 12.1356
579 1 0.641411 9.25572 3.22222
580 1 0.651846 8.68646 0.808738
581 1 1.21472 8.95652 1.51598
582 1 1.77144 9.38038 12.8673
583 1 1.26889 9.30765 2.45868
584 1 1.83931 8.74822 0.7682
585 1 2.27716 8.85881 1.59633
586 1 2.79457 9.74349 12.9255
587 1 2.33745 9.61753 2.311
588 1 2.83713 9.0345 0.6521
589 1 3.45088 9.01099 1.66138
590 1 3.97628 9.62739 0.129581
591 1 3.44203 8.55505 2.53371
592 1 3.89427 9.22323 0.874349
593 1 0.100973 9.13554 2.49208
594 1 0.529851 9.86095 0.724948
595 1 0.164513 10.3623 2.45354
596 1 0.74195 9.28078 0.0885541
597 1 1.12311 10.0021 1.6216
598 1 1.67029 10.6286 0.124727
599 1 1.19792 10.3928 2.47769
600 1 1.64312 9.87267 0.694824
601 1 2.27994 9.95195 1.50303
602 1 2.85618 10.7373 12.8542
603 1 2.86274 10.7413 3.25283
604 1 2.84798 10.1207 0.89389
605 1 3.4219 10.0845 1.63515
606 1 4.06158 10.7142 12.9078
607 1 3.36931 10.7412 2.3836
608 1 3.88408 10.403 0.829032
609 1 0.0213408 10.8496 1.5463
610 1 0.517977 12.1243 0.831719
611 1 13.3709 11.3818 2.33689
612 1 0.609864 10.545 0.114922
613 1 0.59095 11.1771 0.854674
614 1 2.75588 11.7067 12.8824
615 1 1.1009 11.6678 2.30937
616 1 1.18656 11.015 1.62146
617 1 2.30108 10.6456 2.42767
618 1 2.84844 12.3515 0.756762
619 1 2.2186 11.1043 1.68192
620 1 1.74326 11.1424 0.816297
621 1 3.39802 11.3083 1.64405
622 1 4.01959 11.8727 12.7409
623 1 3.28263 11.9984 2.51312
624 1 3.75934 11.5105 0.659042
625 1 13.3865 12.0074 1.63514
626 1 13.4233 12.6134 12.1881
627 1 0.00859351 12.5191 2.51631
628 1 0.503715 12.6884 0.0445357
629 1 1.12146 12.3323 1.73869
630 1 1.55684 0.44458 12.9433
631 1 1.11944 12.8335 2.44545
632 1 1.62797 12.3203 0.849046
633 1 2.21414 12.1667 1.59025
634 1 1.61934 12.7634 12.8389
635 1 2.14379 12.85 2.3931
636 1 2.78244 12.8263 12.8992
637 1 3.3727 12.4156 1.67121
638 1 3.82627 0.237067 0.90509
639 1 3.94087 13.1443 3.08716
640 1 3.85221 12.6253 0.700578
641 1 0.668951 9.79427 3.99306
642 1 0.760603 7.58461 4.061
643 1 1.80366 9.44257 3.2707
644 1 1.79481 8.88568 4.0969
645 1 2.7207 8.388 3.1205
646 1 2.96251 8.99341 4.11108
647 1 3.44122 9.61067 2.45269
648 1 3.92761 9.78949 3.20432
649 1 0.650179 10.3502 3.25284
650 1 13.4253 9.83786 4.90016
651 1 1.80218 10.7811 3.19923
652 1 1.69154 10.0868 3.94443
653 1 2.85441 10.1169 4.20097
654 1 4.02237 10.459 3.94517
655 1 3.97845 10.8981 3.22158
656 1 4.58545 10.3543 4.95089
657 1 0.577266 11.5138 3.09913
658 1 0.633334 11.0226 3.95523
659 1 2.30755 11.8083 2.4675
660 1 1.67896 11.7677 3.24084
661 1 2.86891 11.8926 3.32263
662 1 2.84382 11.2221 4.07921
663 1 3.99211 11.8556 3.21447
664 1 3.872 11.5829 4.16666
665 1 0.406272 13.0887 4.02332
666 1 0.666066 12.5778 3.30766
667 1 1.72382 12.8033 3.3028
668 1 1.64013 12.3066 4.15222
669 1 2.76248 13.0414 3.15829
670 1 2.66901 12.4986 3.99941
671 1 3.85917 0.327071 4.00275
672 1 3.81175 12.6843 3.88384
673 1 4.57164 9.28695 1.62471
674 1 5.19596 9.85279 0.0841673
675 1 4.5664 9.69262 2.54174
676 1 5.08291 9.23012 0.792789
677 1 5.62627 9.34919 1.51471
678 1 6.18324 11.0485 12.8777
679 1 5.62561 9.91941 2.45132
680 1 6.35587 9.28885 0.809004
681 1 6.7539 9.14957 1.79026
682 1 7.34499 9.73316 12.8317
683 1 6.84561 9.80974 2.37584
684 1 7.33725 9.27459 0.86243
685 1 8.46807 9.03603 0.925459
686 1 8.52115 9.39897 0.0856338
687 1 7.91125 10.3805 1.63527
688 1 8.5352 8.43327 12.809
689 1 4.46305 10.3358 1.52751
690 1 4.99473 11.0731 0.0453848
691 1 4.45223 10.7888 2.30789
692 1 5.07286 10.3998 0.829901
693 1 5.7547 10.3548 1.59225
694 1 5.58362 10.9215 12.1531
695 1 5.56228 11.0606 2.38248
696 1 6.21616 9.83186 0.0751378
697 1 6.21088 10.5534 0.778023
698 1 7.31129 10.7608 0.121083
699 1 6.65577 10.9399 2.29358
700 1 6.7571 10.4094 1.5919
701 1 7.32087 10.2441 0.858227
702 1 8.3497 10.6446 0.200712
703 1 7.69904 10.9541 2.51701
704 1 8.51827 10.0633 0.903819
705 1 4.35284 11.6398 1.62936
706 1 5.02811 12.1813 12.8505
707 1 4.47892 12.0293 2.49009
708 1 4.89761 11.5649 0.844929
709 1 5.53073 11.5084 1.65723
710 1 6.14442 11.9862 12.9203
711 1 5.58804 12.7037 1.58359
712 1 6.00998 11.5238 0.804818
713 1 6.73346 11.6246 1.52931
714 1 7.19137 12.0375 0.138202
715 1 6.67821 11.9529 2.52147
716 1 7.26899 11.3921 0.869215
717 1 7.83073 11.4573 1.58341
718 1 8.31597 12.034 12.9408
719 1 7.79985 11.9673 2.43999
720 1 8.43299 11.3743 0.71776
721 1 4.48873 12.7014 1.61177
722 1 5.59101 13.3083 12.1635
723 1 4.41566 0.8185 2.52616
724 1 5.0396 13.3294 0.117828
725 1 5.02206 12.5915 0.77054
726 1 6.18285 0.266389 0.824423
727 1 5.52039 13.2855 2.46794
728 1 6.15905 12.6115 0.755357
729 1 6.70586 12.5279 1.59111
730 1 7.28527 13.1945 0.070623
731 1 6.69544 13.1259 2.49457
732 1 7.28299 12.5878 0.79387
733 1 7.89962 12.6075 1.75011
734 1 8.50614 13.1423 0.106435
735 1 7.79354 13.2016 2.25098
736 1 8.33644 12.4303 0.863825
737 1 5.10049 9.9293 3.23603
738 1 5.14011 9.27138 4.07899
739 1 6.28027 9.95101 3.1494
740 1 6.27648 9.31766 3.86064
741 1 8.00887 9.71796 2.28714
742 1 7.37133 9.25458 4.13845
743 1 8.35468 9.69212 3.28618
744 1 9.13104 8.88602 4.82887
745 1 5.1319 11.0065 3.20496
746 1 5.05051 10.2063 4.07059
747 1 6.17766 10.9626 3.26063
748 1 6.06149 10.3622 4.02886
749 1 7.22459 10.8669 3.28933
750 1 7.23737 10.3501 4.03294
751 1 8.37401 10.7549 3.15446
752 1 8.38445 10.3193 4.19697
753 1 5.63729 12.2438 2.44803
754 1 5.08802 12.1489 3.26358
755 1 6.07812 12.2385 3.30964
756 1 6.14401 11.5345 4.03406
757 1 7.21582 12.037 3.29461
758 1 7.40972 11.5957 4.09265
759 1 8.4187 11.9798 3.22532
760 1 8.3067 11.3218 3.98584
761 1 4.95072 0.459302 3.9822
762 1 4.93858 12.599 4.06247
763 1 6.19934 13.3286 3.24615
764 1 6.11468 12.633 4.14525
765 1 7.30256 13.0293 3.23613
766 1 7.09358 12.6311 4.12538
767 1 8.31773 12.9437 3.27802
768 1 8.43977 12.3661 4.18725
769 1 9.12659 8.91928 1.59746
770 1 9.6311 8.92009 0.850468
771 1 9.04144 9.44144 2.46409
772 1 9.59431 9.44668 0.0888432
773 1 10.3082 8.75461 1.64863
774 1 10.1031 9.34339 12.2155
775 1 10.1703 9.24169 2.45374
776 1 10.7687 8.67115 0.781443
777 1 11.2676 8.63441 1.84734
778 1 11.8995 9.18621 12.7426
779 1 11.3091 9.3801 2.42757
780 1 11.8049 8.76203 0.861395
781 1 12.3422 8.54935 1.61282
782 1 13.1213 9.14707 12.9462
783 1 12.4326 9.15943 2.24123
784 1 12.8785 8.60636 0.731559
785 1 9.10542 10.054 1.65339
786 1 9.5908 10.6703 0.035134
787 1 8.83302 10.6636 2.48338
788 1 9.51454 10.1647 0.808631
789 1 10.1883 9.88108 1.67025
790 1 11.2632 9.78915 1.50949
791 1 10.1065 10.5211 2.33199
792 1 10.8326 9.31074 0.0863418
793 1 11.9396 9.69174 0.789421
794 1 11.8255 10.2948 0.025855
795 1 11.6898 10.3891 3.1324
796 1 12.9625 9.77432 0.733333
797 1 12.4194 9.90567 1.733
798 1 12.9631 10.3031 12.8277
799 1 12.4106 10.3649 2.46522
800 1 0.0174833 9.69921 1.62817
801 1 8.8736 11.2592 1.6978
802 1 9.54867 11.6744 0.00223193
803 1 8.89534 11.8315 2.44702
804 1 9.52312 11.1769 0.96964
805 1 10.1243 11.1208 1.60271
806 1 10.6398 11.616 12.8537
807 1 9.99509 11.6382 2.46128
808 1 10.6443 9.8345 0.785013
809 1 10.6456 11.0485 0.759004
810 1 11.626 10.7862 0.752761
811 1 11.1015 11.5598 2.34179
812 1 11.2889 10.8483 1.62706
813 1 12.3046 10.8825 1.54385
814 1 12.8625 11.5088 0.155024
815 1 12.3857 11.4363 2.57614
816 1 12.8882 10.8678 0.767348
817 1 9.03216 12.3664 1.67285
818 1 9.43699 12.7168 12.9054
819 1 8.92247 12.9542 2.39871
820 1 9.39077 12.3113 0.851407
821 1 10.1135 12.2663 1.59728
822 1 10.5064 12.6832 12.9392
823 1 10.1029 12.7148 2.33912
824 1 10.6002 11.9669 0.765336
825 1 11.1878 12.027 1.62697
826 1 0.0653776 12.0009 11.2715
827 1 11.3124 12.6848 2.42881
828 1 11.6613 11.9991 0.788729
829 1 12.3255 11.9453 1.60363
830 1 11.6777 12.6756 12.9471
831 1 12.3106 12.473 2.50822
832 1 12.8833 12.1636 0.799229
833 1 9.55726 9.61731 3.11812
834 1 10.0528 8.85659 4.96161
835 1 10.6383 9.44746 3.22475
836 1 10.6084 8.93639 4.0636
837 1 11.1297 10.4573 2.50205
838 1 11.8065 8.64514 3.97749
839 1 12.8689 9.2031 3.1869
840 1 13.0516 8.59738 3.96808
841 1 9.53314 10.5658 3.35305
842 1 9.54138 10.0309 4.07528
843 1 10.5547 10.5146 3.24573
844 1 10.7652 9.96451 4.0976
845 1 11.8078 9.71612 3.85734
846 1 11.9222 9.1235 3.17748
847 1 13.0064 10.3 3.26744
848 1 12.9175 9.63633 4.06407
849 1 9.44121 11.5523 3.26874
850 1 9.38377 11.1349 4.22686
851 1 10.6303 11.618 3.19137
852 1 10.5977 11.0519 3.97204
853 1 11.7871 11.4529 3.17407
854 1 11.7555 10.6923 4.10069
855 1 12.9981 11.5148 3.30829
856 1 12.8956 10.8642 3.88655
857 1 9.49678 12.8085 3.16565
858 1 9.56223 12.2049 3.92699
859 1 10.6715 12.662 3.1441
860 1 10.521 12.298 3.98568
861 1 11.7232 12.6107 3.29946
862 1 11.6775 11.872 3.98641
863 1 12.8467 12.5849 3.31337
864 1 12.9059 12.064 4.08377
865 1 0.0531499 13.2048 4.9155
866 1 0.0972051 0.38397 5.71056
867 1 1.03489 13.3848 4.85396
868 1 1.15345 0.473207 5.80989
869 1 2.15728 12.9809 5.70378
870 1 2.25292 0.00237334 4.89292
871 1 3.33622 0.312791 4.86557
872 1 3.22392 0.669126 5.82108
873 1 0.132518 0.881585 4.84056
874 1 0.0476354 1.32842 5.81774
875 1 1.17599 0.994019 4.76003
876 1 0.586629 1.48119 6.51627
877 1 2.3005 1.24866 4.83655
878 1 1.66456 1.61058 6.55135
879 1 2.72886 1.1983 3.99226
880 1 3.32476 1.82841 5.70245
881 1 0.125669 1.84216 4.91536
882 1 13.4219 2.50431 5.59963
883 1 1.12199 1.5176 5.71148
884 1 2.29947 2.88996 5.73657
885 1 2.36508 1.75597 5.84143
886 1 1.69456 2.1437 4.07465
887 1 3.3623 3.0623 5.70634
888 1 3.99723 3.04921 6.49757
889 1 13.4294 2.9785 4.85081
890 1 0.034133 3.68327 5.58765
891 1 1.22536 2.58671 5.7195
892 1 1.16669 3.81771 5.65969
893 1 2.11649 3.21772 4.85516
894 1 2.37365 3.90498 5.6533
895 1 3.32291 3.42393 4.73265
896 1 3.50385 4.0348 5.61398
897 1 0.447293 13.1918 7.51764
898 1 0.702096 0.26717 6.59271
899 1 0.367618 12.8173 6.43863
900 1 1.08674 13.4366 8.08697
901 1 1.59722 0.16069 7.14386
902 1 2.14338 0.639445 5.58296
903 1 2.27474 13.4105 8.0718
904 1 2.71231 0.196783 7.1945
905 1 3.32448 0.281782 8.05191
906 1 3.45621 0.755928 9.03643
907 1 3.89541 0.91158 6.42795
908 1 3.79406 0.328996 7.28922
909 1 0.00766538 0.875155 8.14404
910 1 0.640375 2.17662 7.26619
911 1 0.549485 0.989245 7.25546
912 1 2.35269 1.14128 8.08034
913 1 1.73518 1.13986 7.18203
914 1 2.25798 0.690198 8.77582
915 1 2.9758 1.35136 7.25479
916 1 2.83574 1.92043 6.66997
917 1 2.46022 0.716603 6.42553
918 1 2.68509 0.610116 9.53649
919 1 3.827 2.44493 7.3213
920 1 3.95622 1.4539 7.32731
921 1 0.0532977 1.95071 8.08149
922 1 1.14338 2.01495 8.13759
923 1 1.15829 2.66338 8.7828
924 1 1.18625 1.04109 8.02531
925 1 1.59733 3.39001 7.17791
926 1 1.75339 2.30038 7.38298
927 1 2.54084 2.28518 7.739
928 1 1.77512 2.71392 6.52412
929 1 2.87549 2.87479 6.65471
930 1 3.29977 1.86393 8.93255
931 1 3.37812 3.08032 8.95623
932 1 3.38738 2.50131 8.06489
933 1 0.0302307 3.13727 8.13209
934 1 0.635751 3.59659 6.5133
935 1 0.547702 2.65559 6.501
936 1 0.480028 3.23223 7.34938
937 1 1.77378 3.81097 6.41366
938 1 2.27465 3.38379 8.02172
939 1 2.79469 3.49746 7.26672
940 1 2.88623 4.05133 6.37934
941 1 3.35217 3.58611 8.15743
942 1 3.40447 4.26856 8.81904
943 1 4.4973 4.29344 5.70927
944 1 3.96353 2.00832 6.40449
945 1 4.43138 0.344101 4.85273
946 1 4.49509 0.892535 5.60807
947 1 5.6302 0.204328 4.84499
948 1 5.62619 0.865521 5.51121
949 1 6.83881 0.422392 4.80725
950 1 6.66809 0.93973 5.66396
951 1 7.94957 0.268597 4.80127
952 1 8.49427 0.579824 6.45432
953 1 3.31604 1.3313 4.88494
954 1 3.97851 3.61376 4.02204
955 1 5.54562 1.54891 4.8373
956 1 5.5461 2.0669 5.73604
957 1 6.13168 1.47147 4.15999
958 1 6.58685 3.11024 5.69801
959 1 7.81168 1.35338 4.90747
960 1 7.95333 1.91194 5.63034
961 1 4.45234 2.04872 5.55132
962 1 5.09056 3.73411 7.36886
963 1 5.72112 2.54663 4.76211
964 1 5.06097 3.16565 6.54659
965 1 6.77536 2.60514 4.94444
966 1 6.6379 4.20846 5.74321
967 1 7.82929 2.4825 4.77575
968 1 7.73254 2.85621 5.67239
969 1 5.59812 3.6521 4.86657
970 1 3.93322 4.18538 6.57276
971 1 5.05495 4.88711 3.94952
972 1 5.66401 4.78113 4.85568
973 1 6.70848 3.71124 4.85512
974 1 6.81481 4.78804 4.88718
975 1 7.90869 4.00686 5.71684
976 1 8.55673 4.02007 6.57458
977 1 4.41371 0.364645 8.01808
978 1 5.15706 0.970032 6.33335
979 1 4.96848 0.431693 7.3858
980 1 5.61799 0.345535 8.15093
981 1 6.18219 0.903159 6.49578
982 1 6.05801 0.419349 7.3535
983 1 6.58919 13.269 8.99178
984 1 7.80658 0.769799 5.73529
985 1 6.74835 0.319138 7.98176
986 1 7.76184 0.119523 8.16051
987 1 8.25212 0.136043 7.34705
988 1 8.38023 12.9616 6.50646
989 1 4.57133 1.47157 8.20928
990 1 5.10726 2.04707 6.45936
991 1 4.98663 1.41117 7.21656
992 1 5.57013 1.46118 8.07757