data.lammps (converted from cfg to data.lammps)
    
2298  atoms
1  atom types
0.0   13.4375  xlo xhi
0.0   13.4375  ylo yhi
0.0   12.952  zlo zhi
0.0  0.0 0.0 xy xz yz
    
    
    
Atoms
  
1 1 0.0220039 0.555797 2.47989
2 1 0.455038 0.662457 0.13988
3 1 0.0846432 1.10037 1.69763
4 1 0.580534 0.0405556 0.754137
5 1 1.14457 0.322965 1.65664
6 1 2.21039 1.04785 12.0285
7 1 1.23502 0.761201 2.5117
8 1 1.65234 0.295309 0.844615
9 1 2.257 0.279759 1.62566
10 1 2.85329 1.53419 0.711891
11 1 2.35093 0.904995 2.33592
12 1 2.8039 0.496365 0.842849
13 1 3.39666 0.252864 1.52435
14 1 3.94662 0.84972 12.8843
15 1 3.45293 0.739521 2.40021
16 1 3.98348 0.361736 0.74034
17 1 12.9752 1.1299 0.863273
18 1 1.19847 2.27673 11.6426
19 1 0.0719254 1.72636 2.33622
20 1 0.691355 1.33471 0.742442
21 1 1.09847 1.36806 1.55234
22 1 0.663799 1.87897 12.7838
23 1 1.12844 1.93026 2.37419
24 1 1.79102 1.3964 0.803616
25 1 2.20891 1.50925 1.68547
26 1 2.69902 2.05427 12.9235
27 1 2.21983 2.02549 2.37949
28 1 3.33767 1.92417 2.40701
29 1 3.98078 1.40383 0.865371
30 1 3.78589 1.91022 12.928
31 1 5.03499 1.91439 3.36369
32 1 5.0509 1.46402 0.77605
33 1 0.0147259 2.38153 1.58299
34 1 0.596937 2.9252 12.9374
35 1 13.4298 2.91387 2.33308
36 1 0.576739 2.29312 0.755273
37 1 1.8744 2.48996 0.764355
38 1 1.62556 3.14939 0.0573399
39 1 1.05087 2.9251 2.44162
40 1 2.15344 2.62968 1.66659
41 1 2.82545 2.73995 0.788832
42 1 2.69799 3.18282 12.8301
43 1 2.2544 3.10136 2.58671
44 1 3.26233 2.55388 1.55534
45 1 3.32483 1.4419 1.58022
46 1 3.8077 3.13424 0.0702704
47 1 2.88366 3.18336 3.32102
48 1 3.95901 2.48097 0.726937
49 1 13.389 3.42925 1.58045
50 1 0.602347 3.48749 0.868911
51 1 0.0576136 4.05911 2.43552
52 1 1.17199 3.50291 1.69134
53 1 1.14138 2.53629 1.40707
54 1 1.76627 4.29516 0.0474888
55 1 1.06196 4.04544 2.3856
56 1 1.61321 3.6873 0.804137
57 1 2.22387 3.69605 1.64457
58 1 2.76608 4.23929 12.9126
59 1 2.27056 4.12168 2.53407
60 1 2.77577 3.71763 0.880056
61 1 3.43407 3.62 1.65176
62 1 3.90005 4.45566 0.122731
63 1 3.31765 4.19951 2.50917
64 1 3.86097 3.78431 0.73386
65 1 0.632601 0.744442 3.21922
66 1 0.535616 0.136174 4.04319
67 1 1.83531 0.808803 3.30759
68 1 1.70017 0.211646 4.05859
69 1 2.80657 0.900896 3.16235
70 1 2.876 0.480556 4.08892
71 1 3.89443 0.963379 3.33242
72 1 3.88939 0.242697 4.01652
73 1 0.569997 1.79927 3.2879
74 1 0.615738 1.18842 4.04685
75 1 1.68471 1.88749 3.24458
76 1 1.73408 1.39168 3.98653
77 1 2.90198 1.94408 3.15326
78 1 2.81397 1.48687 4.10503
79 1 3.84613 2.53699 4.08946
80 1 4.42283 1.99184 2.38235
81 1 0.500828 2.87714 3.25862
82 1 0.566615 2.29241 4.03351
83 1 1.58298 3.04955 3.26579
84 1 1.75979 2.51429 4.02231
85 1 2.79006 2.51844 4.07074
86 1 3.18574 2.73884 4.86879
87 1 3.41712 3.00644 2.46804
88 1 4.38779 2.54779 4.86142
89 1 0.580406 4.16232 3.27677
90 1 0.588663 3.4877 4.0236
91 1 1.60315 4.08055 3.16942
92 1 1.60858 3.52921 4.08669
93 1 2.74418 4.46435 3.22351
94 1 2.69837 3.78842 3.99283
95 1 3.92265 4.34135 3.25375
96 1 3.93502 3.28685 3.26209
97 1 4.53098 0.375973 1.55266
98 1 5.08963 0.867002 0.0249159
99 1 4.50889 1.02996 2.57509
100 1 5.0405 0.1692 0.655556
101 1 5.57421 0.0122972 1.59293
102 1 6.3027 0.493007 12.8302
103 1 5.70833 0.629642 2.46899
104 1 6.20657 0.0379256 0.861349
105 1 6.70069 13.3311 1.6764
106 1 7.36187 0.418128 0.0752247
107 1 6.71448 0.485862 2.40453
108 1 7.77983 13.1274 1.56893
109 1 7.30119 13.1985 0.798234
110 1 7.86435 0.44072 12.1057
111 1 7.8898 0.382593 2.38204
112 1 8.40591 13.2682 0.929109
113 1 4.38509 1.29844 1.62052
114 1 5.11744 2.02707 12.8205
115 1 3.91981 2.08 3.34018
116 1 5.57553 1.21567 1.68689
117 1 6.0223 0.967175 0.79208
118 1 6.03324 2.19609 0.818828
119 1 5.49118 1.84975 2.50672
120 1 6.29012 1.66012 0.0798526
121 1 6.60702 1.04487 1.50757
122 1 6.72797 1.56763 12.0573
123 1 6.7476 1.64406 2.52346
124 1 7.23261 1.04065 0.775833
125 1 7.82388 0.932764 1.58582
126 1 8.98087 1.37652 12.2187
127 1 7.6647 1.34899 2.50257
128 1 8.45928 1.29694 12.9311
129 1 4.30739 2.48459 1.55459
130 1 5.07186 3.09287 0.0307878
131 1 4.51763 2.94062 2.46896
132 1 5.01991 2.384 0.778047
133 1 5.48895 2.23529 1.67
134 1 6.24457 2.8267 0.110946
135 1 5.53339 2.99561 2.42981
136 1 6.62799 2.05912 1.5997
137 1 7.86524 2.62835 2.30206
138 1 7.94125 2.54629 12.08
139 1 6.63894 2.77881 2.41089
140 1 7.34041 1.57354 12.8214
141 1 7.17294 2.08953 0.881898
142 1 8.45125 2.54423 0.0545942
143 1 7.6845 3.21468 1.59702
144 1 7.74782 2.04085 1.65411
145 1 4.42301 3.56936 1.6649
146 1 5.07954 4.19683 0.111382
147 1 4.47578 4.17725 2.54066
148 1 4.8638 3.62725 0.878087
149 1 5.51716 3.32566 1.53107
150 1 6.15631 4.07336 0.0116215
151 1 5.56546 3.9279 2.4449
152 1 6.01452 3.40117 0.740632
153 1 7.29241 3.81437 0.0478582
154 1 6.66161 3.89478 12.1971
155 1 6.58987 3.1899 1.60746
156 1 7.21142 3.24362 0.792144
157 1 7.9707 3.71758 2.52744
158 1 8.493 3.57256 12.9325
159 1 8.47812 3.57866 3.33484
160 1 8.28144 3.00089 0.758569
161 1 5.04231 0.77455 3.2394
162 1 4.98573 0.297457 4.05039
163 1 6.16531 0.633321 3.26599
164 1 6.0673 0.160072 4.01563
165 1 7.34194 0.315662 3.23984
166 1 7.24748 13.2994 4.11455
167 1 8.46572 0.332898 3.21533
168 1 8.38598 13.238 4.0166
169 1 5.07866 1.36688 4.16246
170 1 4.45526 1.47141 4.90469
171 1 6.13556 1.73044 3.11743
172 1 6.15968 1.23784 4.12485
173 1 7.32692 1.66485 3.36084
174 1 7.09211 0.971615 3.77657
175 1 8.4353 1.58208 3.03898
176 1 8.32536 0.878911 3.9659
177 1 5.01119 2.9805 3.2993
178 1 4.96052 2.44412 4.12187
179 1 6.10022 2.816 3.25573
180 1 6.11589 2.27666 4.05306
181 1 7.28846 2.75826 3.12485
182 1 7.30786 2.2656 4.0204
183 1 8.28486 2.63954 3.20351
184 1 8.43046 1.8991 4.05184
185 1 5.00525 3.54137 4.10468
186 1 4.39952 3.71881 4.83591
187 1 6.70811 3.8177 2.37428
188 1 6.20376 3.42338 4.03095
189 1 7.22944 3.7749 3.15805
190 1 7.3109 3.25823 4.13462
191 1 8.34402 4.73637 3.31505
192 1 7.82447 3.18836 4.93829
193 1 9.07789 12.9682 1.5155
194 1 9.07918 0.131147 12.1983
195 1 8.84421 0.107099 2.34225
196 1 9.64802 12.9569 0.753551
197 1 10.1263 13.0537 1.5845
198 1 10.7445 0.269387 12.8233
199 1 10.133 0.161387 2.39485
200 1 10.7892 13.1931 0.702615
201 1 11.1245 13.0946 1.73119
202 1 11.3482 0.173583 12.0745
203 1 11.2358 0.253935 2.45598
204 1 11.7534 13.1809 0.738141
205 1 12.1568 13.2919 1.57051
206 1 11.8389 0.446814 0.0832083
207 1 12.4313 0.298048 2.44732
208 1 12.8116 13.2861 0.793468
209 1 8.3475 0.815269 0.865238
210 1 9.41302 1.82933 0.891442
211 1 9.10611 0.791547 1.61645
212 1 9.58674 0.101633 0.0577781
213 1 10.1322 0.734787 1.55157
214 1 10.089 2.41981 12.1513
215 1 9.55948 1.22538 3.17214
216 1 10.6398 0.864915 0.740709
217 1 11.1474 0.798587 1.55034
218 1 11.6844 2.02128 0.881121
219 1 11.147 1.35463 2.53927
220 1 11.8801 0.949699 0.812097
221 1 12.3019 0.920615 1.62849
222 1 12.9201 0.598422 0.1378
223 1 12.2595 1.43514 2.3405
224 1 13.4159 0.150595 1.47579
225 1 8.78855 1.93904 1.6692
226 1 8.99701 2.41978 12.0892
227 1 9.01167 2.43353 2.42298
228 1 10.0295 1.86956 1.6191
229 1 10.1011 1.22092 2.41346
230 1 10.2018 1.84444 11.3851
231 1 10.0885 2.30437 2.41061
232 1 10.6171 2.08152 0.876998
233 1 11.2133 1.8521 1.55057
234 1 12.5295 2.59819 12.1327
235 1 11.1629 2.45733 2.33369
236 1 11.8445 2.56039 12.9065
237 1 12.3775 2.00708 1.65924
238 1 11.8779 3.62334 12.917
239 1 12.2105 2.61291 2.3285
240 1 12.8431 2.2079 0.765243
241 1 8.93605 2.99194 1.61809
242 1 9.565 4.03452 0.77047
243 1 8.93406 3.55438 2.34448
244 1 9.43669 3.00329 0.771194
245 1 10.1001 2.99236 1.60822
246 1 10.7226 3.54128 12.8973
247 1 9.93202 3.45607 2.40414
248 1 10.0866 2.9116 11.285
249 1 11.171 3.06765 1.68215
250 1 12.3205 3.70835 12.17
251 1 11.1993 4.13188 1.67964
252 1 11.7447 4.2086 0.745202
253 1 12.2092 3.11398 1.56932
254 1 12.8362 3.34893 0.81247
255 1 12.396 3.62663 2.37809
256 1 13.0143 2.76267 0.0841978
257 1 9.50065 0.201118 3.19646
258 1 9.5327 13.0856 4.05098
259 1 10.6343 0.112805 3.21877
260 1 10.7262 12.9825 4.066
261 1 11.78 0.308121 3.137
262 1 11.8527 13.2338 4.06456
263 1 12.9392 0.570516 3.30812
264 1 12.9399 13.2853 3.9498
265 1 8.99825 1.30703 2.3756
266 1 9.51982 0.705779 4.05609
267 1 10.6568 1.39746 3.33282
268 1 10.5916 0.750341 3.90148
269 1 11.7735 1.52767 3.29375
270 1 11.7784 0.911994 4.04029
271 1 12.9338 1.58291 3.04139
272 1 12.8671 1.14138 4.04833
273 1 9.44476 2.42601 3.29416
274 1 9.45635 1.77438 3.98252
275 1 10.6054 2.50486 3.15116
276 1 10.5445 2.00708 4.00292
277 1 11.6837 2.50894 3.17605
278 1 11.8315 2.11061 4.05433
279 1 12.8788 2.53583 3.1919
280 1 12.8741 2.15495 4.16196
281 1 9.46245 3.43063 3.30592
282 1 9.64771 2.92512 4.08676
283 1 12.9251 3.84956 3.24173
284 1 10.701 3.12454 4.08061
285 1 11.1337 3.60925 2.50279
286 1 11.6935 3.24645 3.93601
287 1 11.7998 3.68557 3.1736
288 1 12.773 3.24056 3.96041
289 1 13.3014 4.47222 1.6047
290 1 0.521091 5.27427 12.9152
291 1 0.0142159 5.09907 2.42682
292 1 0.50186 4.61073 0.872575
293 1 1.05153 4.69246 1.58878
294 1 1.68903 5.45439 0.00722811
295 1 1.19585 5.22101 2.36901
296 1 1.68973 4.86603 0.883369
297 1 2.19019 4.76108 1.68908
298 1 2.7525 5.31424 0.144006
299 1 2.23509 5.36256 2.49599
300 1 2.79835 4.83739 0.889752
301 1 3.37162 4.74142 1.72013
302 1 3.8556 5.49001 12.9277
303 1 3.37722 5.39028 2.42996
304 1 3.9255 4.96125 0.961814
305 1 13.3784 5.5812 1.65014
306 1 0.749952 6.39483 12.9345
307 1 0.0380105 6.22704 2.57797
308 1 0.529491 5.61002 0.794432
309 1 0.92448 5.85159 1.6411
310 1 1.79741 6.4909 12.9063
311 1 1.13684 6.36353 2.37786
312 1 1.60901 5.96344 0.906327
313 1 2.07146 5.8346 1.58895
314 1 2.80012 6.4718 0.11498
315 1 2.31356 6.41767 2.46763
316 1 2.78428 5.96019 0.942472
317 1 3.25885 6.00072 1.69433
318 1 3.82759 6.44505 0.0129845
319 1 3.41444 6.54659 2.46074
320 1 3.90996 5.84175 0.912643
321 1 0.0185302 6.71135 1.58591
322 1 0.572674 7.48211 0.0171144
323 1 0.0713058 7.28596 2.36691
324 1 0.629785 6.84357 0.773549
325 1 1.20872 7.03485 1.59955
326 1 1.5939 7.55132 12.9437
327 1 1.17946 7.43192 2.49779
328 1 1.7824 7.02773 0.741927
329 1 2.30828 7.01728 1.73312
330 1 3.01969 7.53941 12.8609
331 1 2.32436 7.59646 2.45674
332 1 2.82464 7.10496 0.809496
333 1 3.39906 7.27694 1.62514
334 1 4.02511 7.56112 0.214977
335 1 3.49659 7.64373 2.5069
336 1 3.97397 6.95837 0.928486
337 1 0.104705 7.81001 1.74633
338 1 0.659233 8.56788 0.101676
339 1 0.0833472 8.42647 2.40412
340 1 0.537359 7.92274 0.9242
341 1 1.19349 8.08348 1.58281
342 1 1.78449 8.7226 0.0604147
343 1 1.19024 8.49661 2.47776
344 1 1.83199 8.07251 0.770757
345 1 2.31165 8.03479 1.68123
346 1 2.89516 8.78592 12.9347
347 1 2.3048 8.73056 2.34238
348 1 2.93359 8.12887 0.660711
349 1 3.39747 8.30787 1.58571
350 1 4.0293 8.7374 0.0221675
351 1 2.75998 9.80798 3.21914
352 1 4.08653 8.15437 0.808602
353 1 0.639251 5.16113 3.1862
354 1 0.52911 4.65483 4.08703
355 1 1.69753 5.22047 3.27842
356 1 1.65627 4.70858 4.17426
357 1 2.75161 5.57183 3.24397
358 1 2.87161 4.7846 4.08479
359 1 3.84099 5.37738 3.29935
360 1 3.90163 4.83238 4.1253
361 1 0.66859 6.21642 3.34511
362 1 0.537168 5.71879 4.20857
363 1 1.62592 6.45172 3.24005
364 1 1.69222 5.79758 4.01534
365 1 2.7581 6.5887 3.30451
366 1 2.79884 5.93333 4.20987
367 1 3.82048 6.45989 3.34247
368 1 4.00352 5.95284 4.09518
369 1 0.539452 7.53825 3.39098
370 1 0.442635 6.79678 4.05183
371 1 1.66131 7.51578 3.27802
372 1 1.75667 7.01741 4.08948
373 1 2.83893 7.60561 3.24054
374 1 2.6981 7.02988 4.11271
375 1 5.07831 7.45068 3.3437
376 1 3.30619 7.1106 4.83301
377 1 0.473977 8.55932 3.21982
378 1 0.686318 7.9487 4.17212
379 1 1.69542 8.67434 3.27521
380 1 1.69053 8.10449 4.03562
381 1 3.88877 8.84459 3.13515
382 1 2.83371 8.2159 3.95912
383 1 3.96953 7.57595 3.29588
384 1 3.92828 8.2918 4.04483
385 1 4.46187 4.68009 1.65308
386 1 5.04381 5.2969 0.0343587
387 1 4.45055 5.30855 2.49453
388 1 5.09272 4.69342 0.849118
389 1 5.64051 4.9886 2.4751
390 1 6.20993 4.5229 0.840475
391 1 6.08411 5.0765 3.26994
392 1 5.59508 4.40436 1.62676
393 1 6.71108 4.35556 1.73949
394 1 6.7367 4.88331 12.0733
395 1 6.81977 4.94343 2.61739
396 1 7.24109 4.27976 0.862282
397 1 7.80813 4.21993 1.67098
398 1 8.54093 4.61536 0.0152788
399 1 7.8953 4.85037 2.35181
400 1 8.32983 4.14629 0.842108
401 1 4.4025 5.89658 1.63134
402 1 4.94633 6.41911 0.128042
403 1 4.43046 6.41294 2.50928
404 1 5.00386 5.82786 0.89494
405 1 5.49692 5.59937 1.88313
406 1 6.15069 6.19653 12.907
407 1 6.316 6.15343 3.18586
408 1 6.03615 5.65356 0.876356
409 1 6.67035 5.5142 1.72916
410 1 7.19891 5.51191 0.89116
411 1 6.75046 6.1374 2.30379
412 1 7.32939 4.86411 0.0686004
413 1 7.83932 5.37039 1.54788
414 1 8.55191 5.95303 0.0187633
415 1 7.84539 5.98068 2.35149
416 1 8.28679 5.25358 0.633451
417 1 4.45128 6.96706 1.66714
418 1 5.10587 7.49382 12.868
419 1 4.64745 7.50697 2.47943
420 1 5.05368 6.95548 0.850011
421 1 5.63553 6.34472 2.57657
422 1 6.37206 7.33482 12.9434
423 1 5.61728 6.7498 1.67433
424 1 6.07992 6.66574 0.841977
425 1 6.70037 6.68276 1.57275
426 1 7.35816 7.19999 0.1009
427 1 6.78602 7.22971 2.58702
428 1 7.17103 6.49929 0.81029
429 1 7.86878 6.55723 1.53736
430 1 8.34697 6.48216 0.816875
431 1 7.86191 7.01151 2.41142
432 1 9.07233 6.30036 1.67069
433 1 4.59614 8.07188 1.6848
434 1 5.20295 8.63238 0.0546204
435 1 4.5586 8.69332 2.39972
436 1 5.12978 7.93505 0.896657
437 1 5.67162 7.43388 2.34921
438 1 6.26944 8.5323 12.9294
439 1 5.72597 8.00652 1.5673
440 1 6.18462 7.80982 0.688477
441 1 6.7182 7.72254 1.5449
442 1 7.27729 8.37193 12.9317
443 1 6.70443 8.23148 2.51631
444 1 7.35441 7.72103 0.853574
445 1 7.86439 7.54493 1.6612
446 1 8.43718 7.62768 0.827437
447 1 7.77839 8.71016 1.65444
448 1 8.53323 7.02961 12.9448
449 1 4.91817 5.26211 3.24585
450 1 5.0407 4.21362 3.35747
451 1 6.08537 5.67513 4.03645
452 1 6.06213 3.98376 3.34909
453 1 7.37541 4.80065 3.34522
454 1 7.26899 4.20815 4.07842
455 1 8.4273 5.4174 3.98146
456 1 8.33634 2.97185 4.20673
457 1 5.06368 5.78922 4.04825
458 1 4.34717 5.42567 5.64429
459 1 6.05166 6.65586 4.0687
460 1 6.14289 7.20818 3.30856
461 1 7.24194 5.90413 3.27495
462 1 8.32371 5.92854 6.55926
463 1 8.34973 5.89586 3.18523
464 1 7.71767 5.93537 5.67255
465 1 5.00661 8.11444 4.05434
466 1 4.97284 6.28551 3.10748
467 1 6.06878 8.44857 3.31706
468 1 4.91212 6.82098 4.06554
469 1 6.12231 7.93726 4.00068
470 1 7.355 7.14597 3.32758
471 1 8.43182 7.08381 3.24808
472 1 8.45892 6.53572 4.09169
473 1 5.00976 8.56749 3.19922
474 1 4.40469 8.23149 4.83559
475 1 5.54731 7.86563 4.86866
476 1 6.76062 7.63555 4.82479
477 1 7.13707 8.28461 3.27446
478 1 6.54983 8.82826 4.80118
479 1 7.76354 8.18122 2.47403
480 1 8.47507 7.52566 4.22762
481 1 8.97225 4.19529 1.56621
482 1 9.46813 4.66272 0.0728371
483 1 8.97281 4.64295 2.35506
484 1 10.1822 3.99263 1.58851
485 1 10.6566 3.02802 0.777152
486 1 10.0428 4.66921 12.1081
487 1 9.89624 4.60378 2.33057
488 1 10.6009 4.65177 12.8282
489 1 10.6524 4.1633 0.718385
490 1 12.371 4.88616 12.0422
491 1 10.9319 4.76742 2.48873
492 1 11.8631 4.85975 0.0399582
493 1 12.1577 4.24597 1.7802
494 1 12.8842 4.94114 0.0148852
495 1 12.3158 4.85704 2.54538
496 1 12.7508 4.4025 0.819415
497 1 8.89843 5.27063 1.45281
498 1 9.64412 5.84027 12.8961
499 1 9.57172 5.73285 3.22779
500 1 9.58005 5.31418 0.718051
501 1 10.0157 5.19765 1.58855
502 1 10.8099 5.63672 12.9071
503 1 10.0558 5.69814 2.48744
504 1 10.8002 5.09021 0.886168
505 1 11.2428 5.23713 1.70001
506 1 11.391 5.86227 12.0337
507 1 11.1123 5.86206 2.38211
508 1 11.7766 5.4956 0.7777
509 1 12.296 5.35945 1.61419
510 1 12.9874 6.22315 12.8971
511 1 12.1693 5.87754 2.40444
512 1 12.8417 5.57281 0.757012
513 1 8.91862 5.7151 2.3999
514 1 9.6137 6.88462 12.8811
515 1 8.95445 6.89505 2.36013
516 1 9.40961 6.43316 0.8043
517 1 10.095 6.28796 1.61078
518 1 10.6809 6.73719 0.0358004
519 1 10.0168 6.82512 2.31722
520 1 10.5891 6.13533 0.757364
521 1 11.1851 6.41572 1.41719
522 1 11.6711 6.98038 0.0274437
523 1 11.1603 6.82676 2.46986
524 1 12.9674 6.64542 0.723622
525 1 12.5095 6.53206 1.77571
526 1 12.3669 7.08077 12.2119
527 1 12.2346 7.14444 2.39427
528 1 12.9232 7.3009 12.927
529 1 8.95979 7.583 1.6455
530 1 10.1042 7.97802 12.2889
531 1 8.31776 8.06988 3.17658
532 1 9.54049 7.42875 0.809192
533 1 10.2125 7.48361 1.59775
534 1 10.7684 8.08486 0.0398375
535 1 9.97115 8.05952 2.33061
536 1 10.5957 7.39101 0.647935
537 1 11.3195 7.3919 1.59242
538 1 11.7571 7.70693 0.741208
539 1 11.1708 7.93796 2.4141
540 1 11.8969 6.48595 0.949452
541 1 12.4307 7.64118 1.59075
542 1 13.0155 8.35017 0.0718283
543 1 12.8241 8.2716 3.21574
544 1 12.8072 7.73066 0.848037
545 1 9.39405 4.57891 3.28021
546 1 9.58172 3.96671 4.19522
547 1 10.5296 4.59702 3.27595
548 1 10.4885 3.54081 3.2172
549 1 11.6822 4.78544 3.11615
550 1 11.7585 4.30138 3.97405
551 1 12.9207 5.08893 3.1915
552 1 12.8182 4.56378 3.9546
553 1 9.42084 6.3011 4.09611
554 1 9.51069 5.04792 4.01348
555 1 10.5975 5.84203 3.36533
556 1 10.6372 5.27202 4.15079
557 1 11.6668 5.83898 3.35748
558 1 11.7866 5.29628 3.98499
559 1 12.8179 6.14071 3.14683
560 1 12.8109 5.65216 3.98266
561 1 9.58649 7.99355 3.44128
562 1 9.62758 6.78412 3.14889
563 1 10.656 6.97823 3.17123
564 1 10.6138 6.51399 4.00775
565 1 11.9123 6.88486 3.27625
566 1 11.6917 6.49992 4.17311
567 1 12.9248 7.31384 3.22691
568 1 12.9035 6.75976 4.08386
569 1 9.03977 7.97204 2.55417
570 1 9.04848 7.54981 4.92215
571 1 10.5712 7.97833 3.17632
572 1 10.7276 7.51186 4.16859
573 1 12.3589 8.27544 2.36086
574 1 11.774 8.82478 4.15194
575 1 12.7618 7.76591 4.17446
576 1 12.1416 7.7233 4.91146
577 1 0.109245 9.0787 1.71026
578 1 0.514793 9.70541 12.9426
579 1 13.4074 9.56965 2.60254
580 1 0.667093 9.13239 0.82717
581 1 1.13294 9.1567 1.7962
582 1 1.6903 9.69299 12.8917
583 1 1.3034 9.84853 2.41322
584 1 1.5914 9.2366 0.815164
585 1 2.24155 9.17304 1.54515
586 1 2.79599 9.89023 0.0999593
587 1 2.25363 9.81558 2.26146
588 1 2.81158 9.30531 0.894913
589 1 3.39579 9.35855 1.60977
590 1 3.87692 9.83208 0.0662867
591 1 3.40728 8.73064 2.41455
592 1 4.01087 9.34453 0.796218
593 1 13.3548 10.0849 1.5627
594 1 0.597611 10.8913 12.884
595 1 13.4268 10.6222 2.41289
596 1 0.498985 10.2894 0.661391
597 1 0.830072 10.1803 1.59316
598 1 1.66316 10.8478 12.95
599 1 1.14391 10.8685 2.47623
600 1 1.61469 10.2308 0.754005
601 1 2.02726 10.489 1.59373
602 1 2.7183 11.0084 0.0590059
603 1 2.35903 10.8993 2.40846
604 1 2.70146 10.4392 0.921189
605 1 3.393 10.5159 1.51168
606 1 3.92019 11.025 12.8583
607 1 3.34454 11.0521 2.33378
608 1 3.91702 10.5355 0.724205
609 1 13.3325 11.1547 1.58838
610 1 0.478568 11.8122 12.8449
611 1 0.0539756 11.8219 2.33376
612 1 0.466205 11.3698 0.873748
613 1 1.09232 11.2852 1.57175
614 1 2.08795 12.1176 12.1552
615 1 1.15356 11.8639 2.38919
616 1 1.65472 11.5363 0.789169
617 1 2.24185 11.5037 1.53003
618 1 2.6433 12.8525 0.737711
619 1 2.28048 11.9275 2.46247
620 1 2.79904 11.5614 0.71586
621 1 3.32616 11.6668 1.52286
622 1 3.91831 12.1967 12.7966
623 1 3.29912 12.1165 2.34136
624 1 3.89572 11.6496 0.775365
625 1 0.0624402 12.3987 1.63893
626 1 0.619814 12.9819 12.8467
627 1 13.404 12.9515 2.28978
628 1 0.560436 12.4382 0.671498
629 1 1.14412 12.5046 1.64198
630 1 1.66066 0.863167 12.8655
631 1 1.1175 13.0861 2.39367
632 1 1.62344 12.6493 0.844307
633 1 2.17984 12.6066 1.63239
634 1 1.71069 13.2208 12.8728
635 1 2.15227 13.195 2.33816
636 1 2.73096 13.3662 12.9322
637 1 3.2569 12.7065 1.55714
638 1 3.75252 13.2503 12.8959
639 1 3.29416 13.0914 2.47287
640 1 3.88821 12.629 0.743731
641 1 0.679916 9.57125 3.089
642 1 0.45816 9.10071 4.07017
643 1 1.84932 9.80151 3.32368
644 1 1.4912 9.15329 4.08175
645 1 2.71599 8.77556 3.26008
646 1 2.88345 9.26538 4.15516
647 1 3.20592 9.98021 2.26853
648 1 3.84147 9.89646 3.13701
649 1 0.530467 10.7488 3.16262
650 1 0.618097 10.1141 3.93338
651 1 1.7624 10.9452 3.18237
652 1 1.64417 10.262 4.04014
653 1 2.84208 10.9226 3.27885
654 1 2.83893 10.3819 4.0451
655 1 3.89979 10.994 3.21221
656 1 3.98121 10.4822 3.99688
657 1 0.429438 11.9709 3.21794
658 1 0.611174 11.2778 3.86401
659 1 1.75474 12.199 3.13514
660 1 1.61869 11.4593 3.97068
661 1 2.92909 12.0626 3.38238
662 1 2.72148 11.5341 4.06545
663 1 3.9988 12.0748 3.12573
664 1 4.06448 11.5604 4.09883
665 1 0.553594 12.9687 3.19515
666 1 0.642378 12.4205 4.00947
667 1 1.58599 13.2264 3.17808
668 1 1.70554 12.5981 3.99493
669 1 2.75854 13.218 3.16121
670 1 2.79723 12.8088 3.89731
671 1 3.97761 13.2701 3.13297
672 1 3.85053 12.6953 3.90417
673 1 4.50754 9.25025 1.58894
674 1 4.9696 9.8323 12.8324
675 1 4.44155 9.82026 2.41903
676 1 5.13784 9.13835 0.725611
677 1 5.57057 9.13515 1.59698
678 1 6.2362 10.7556 12.8172
679 1 5.61822 9.65065 2.51963
680 1 6.22305 8.97652 0.855998
681 1 6.66249 8.87429 1.65495
682 1 7.42492 9.32619 0.0288455
683 1 6.68014 9.42489 2.39581
684 1 7.31003 8.79995 0.821027
685 1 8.44898 8.68431 0.810127
686 1 8.47822 9.18777 12.8786
687 1 7.92252 9.76416 1.55867
688 1 8.45948 8.10155 12.8419
689 1 4.48051 10.3587 1.51057
690 1 5.11482 10.9297 12.9353
691 1 4.43088 10.9229 2.29205
692 1 5.11141 10.2796 0.779784
693 1 5.6256 10.2288 1.71987
694 1 5.62272 10.7924 12.1345
695 1 5.45171 10.8954 2.38514
696 1 6.15357 9.66749 0.0245233
697 1 6.20545 10.0488 0.855613
698 1 7.3636 10.3849 0.100089
699 1 6.64376 10.6469 2.57539
700 1 6.73631 10.0749 1.67535
701 1 7.26154 9.9206 0.945685
702 1 8.34008 10.2368 12.9158
703 1 7.76102 10.3891 2.42987
704 1 8.5199 9.7463 0.80854
705 1 4.51114 11.5448 1.64704
706 1 5.055 12.0085 12.8012
707 1 4.50233 12.214 2.34888
708 1 4.98523 11.3513 0.863691
709 1 5.6635 11.3803 1.55314
710 1 6.16327 11.7782 0.09078
711 1 5.58655 11.8967 2.42337
712 1 6.14926 11.1037 0.825417
713 1 6.65809 11.1366 1.69429
714 1 7.18066 11.6685 0.085326
715 1 6.86804 11.72 2.52481
716 1 7.15821 10.9927 0.748627
717 1 7.78233 10.8434 1.57916
718 1 8.30017 11.424 0.0113635
719 1 7.80841 11.3596 2.53294
720 1 8.38151 10.885 0.839018
721 1 4.45339 12.7667 1.65481
722 1 5.05079 13.0867 12.8424
723 1 4.51996 13.368 2.42065
724 1 4.91823 12.4129 0.641465
725 1 5.49977 12.4278 1.45922
726 1 6.19141 12.9482 0.014115
727 1 5.62994 12.9431 2.41021
728 1 6.1183 12.3697 0.731451
729 1 6.69976 12.1273 1.61457
730 1 7.32392 12.7371 12.9145
731 1 6.69011 12.7851 2.44592
732 1 7.24791 12.1285 0.969968
733 1 7.89007 11.9561 1.73182
734 1 8.432 12.5423 0.189119
735 1 7.77199 12.5867 2.39999
736 1 8.26562 12.0173 0.88673
737 1 5.04359 9.77147 3.14848
738 1 5.00133 9.3136 3.95868
739 1 6.22847 9.68773 3.31275
740 1 6.14725 9.11057 4.10521
741 1 7.85629 9.31039 2.48019
742 1 7.26492 8.8424 4.13166
743 1 8.34204 9.32513 3.2437
744 1 8.90971 8.60383 4.92447
745 1 5.03994 10.8087 3.17259
746 1 4.95121 10.3874 4.05513
747 1 6.09899 10.6233 3.32284
748 1 6.02786 10.1572 4.16566
749 1 7.329 10.3686 3.35257
750 1 7.22506 9.95708 4.12793
751 1 8.48436 10.3465 3.3266
752 1 8.43671 9.79432 4.13797
753 1 5.00942 11.8897 3.21488
754 1 5.13343 11.4402 4.12064
755 1 6.19586 11.7373 3.22186
756 1 6.17148 11.2439 4.1342
757 1 7.42489 11.7168 3.38326
758 1 7.09761 11.0433 4.04745
759 1 8.56977 11.3317 3.22415
760 1 8.30077 10.9463 4.19838
761 1 5.07423 13.1212 3.19407
762 1 5.13561 12.5921 3.95185
763 1 6.20197 12.9277 3.24366
764 1 6.19045 12.3747 3.99587
765 1 7.28945 12.7544 3.23646
766 1 7.21175 12.1422 4.13056
767 1 8.32149 12.6335 3.2963
768 1 8.42429 12.041 4.01173
769 1 8.94704 8.64283 1.49971
770 1 9.53835 8.64538 0.765606
771 1 8.91041 9.02042 2.43723
772 1 9.69353 9.26729 0.0965868
773 1 10.0589 8.6679 1.64505
774 1 10.1239 9.10063 12.1614
775 1 10.0699 9.08762 2.57731
776 1 10.648 8.51325 0.892998
777 1 11.2729 8.42649 1.60203
778 1 11.8144 9.22238 0.0616308
779 1 11.1419 9.08722 2.28504
780 1 11.7584 8.78813 0.857558
781 1 12.524 8.71482 1.58736
782 1 12.8052 9.47657 12.9487
783 1 12.2481 9.15974 2.59129
784 1 13.0172 8.92073 0.749569
785 1 9.01787 9.68371 1.82093
786 1 9.51917 10.2912 12.819
787 1 8.94704 10.4393 2.37803
788 1 9.52056 9.86675 0.788114
789 1 10.0467 9.62805 1.67559
790 1 10.5981 9.61081 0.940048
791 1 10.0361 10.2473 2.40164
792 1 10.7578 9.04965 12.9451
793 1 11.206 9.73266 1.60641
794 1 11.7177 10.3355 12.9116
795 1 11.0692 10.1626 2.42186
796 1 11.7286 9.91822 0.852419
797 1 12.415 9.77335 1.68503
798 1 12.8523 10.5678 12.8905
799 1 12.2385 10.3817 2.32508
800 1 12.8256 10.0732 0.850321
801 1 8.85933 10.8133 1.68325
802 1 9.43428 11.2591 12.9248
803 1 8.91014 11.5487 2.35498
804 1 9.45076 10.8635 0.935541
805 1 10.0758 10.8384 1.63261
806 1 10.5718 11.3107 0.165005
807 1 9.90848 11.3311 2.5183
808 1 10.6452 10.7824 0.831349
809 1 11.1863 10.9833 1.74637
810 1 11.7121 11.4046 0.170403
811 1 11.3194 11.492 2.5174
812 1 11.8145 10.8719 0.959146
813 1 12.2706 11.0803 1.76487
814 1 12.8303 11.8116 12.8988
815 1 12.3535 11.7406 2.33585
816 1 12.8633 11.1106 0.731753
817 1 9.00795 11.9561 1.57296
818 1 9.35673 12.3854 12.8263
819 1 8.83189 12.5946 2.52722
820 1 9.49754 11.8886 0.735926
821 1 10.078 11.8955 1.66094
822 1 10.6445 12.6211 12.7797
823 1 10.0214 12.4725 2.48901
824 1 10.5899 12.19 0.611991
825 1 10.9411 11.9388 1.55134
826 1 13.2706 13.127 12.0388
827 1 11.336 12.4052 2.38464
828 1 11.647 12.1259 0.76581
829 1 12.3092 12.2409 1.34519
830 1 11.9509 12.6584 12.8732
831 1 12.395 12.7428 2.41816
832 1 12.9673 12.0943 0.90634
833 1 9.46485 9.09058 3.23259
834 1 9.91745 8.58921 4.90319
835 1 10.6867 8.98111 3.18984
836 1 10.5908 8.51685 4.11857
837 1 11.6446 9.27365 3.20265
838 1 11.7622 8.03623 3.206
839 1 12.8408 9.51706 3.24674
840 1 12.878 8.83729 3.91381
841 1 9.51097 10.2362 3.17674
842 1 9.61609 9.64318 4.05343
843 1 10.6314 10.0977 3.32531
844 1 10.6302 9.5901 4.06995
845 1 11.778 10.3973 3.19661
846 1 11.8386 9.87127 4.07365
847 1 12.8236 10.5613 3.15644
848 1 12.9311 10.0159 4.03255
849 1 9.49314 11.3615 3.43879
850 1 9.64717 10.7026 4.09959
851 1 10.6369 11.2576 3.09235
852 1 10.6873 10.8373 3.91675
853 1 11.8113 11.4429 3.27572
854 1 11.687 10.9936 4.15491
855 1 12.8338 11.5582 3.1646
856 1 12.9063 11.0118 4.12556
857 1 9.5526 12.6367 3.22475
858 1 9.46378 11.9762 4.08884
859 1 10.6651 12.4351 3.2032
860 1 10.63 11.8469 3.97147
861 1 11.7503 12.6594 3.25138
862 1 11.8649 12.0737 3.93672
863 1 12.8383 12.7727 3.19473
864 1 12.9496 12.2195 4.0551
865 1 0.078588 0.0328817 4.75941
866 1 13.3846 0.534005 5.65967
867 1 1.26406 0.222788 4.87528
868 1 1.09023 0.815822 5.6412
869 1 2.26969 0.378799 4.89662
870 1 2.1968 0.924442 5.73227
871 1 3.4173 0.340353 4.89975
872 1 3.24164 0.947264 5.64434
873 1 0.00152317 1.15109 4.76987
874 1 13.3939 1.67853 5.63083
875 1 1.05542 1.31583 4.8976
876 1 1.13666 1.91453 5.71366
877 1 2.06182 1.49088 4.82803
878 1 2.30911 2.04525 5.80725
879 1 3.34418 1.57267 4.90286
880 1 3.3113 2.25389 5.61578
881 1 13.4223 2.43197 5.00812
882 1 13.3555 2.95882 5.6862
883 1 1.0636 2.36098 4.81136
884 1 1.01641 2.88678 5.64069
885 1 2.13697 2.57307 4.94051
886 1 2.05931 3.06376 5.74834
887 1 3.28576 3.22089 5.69134
888 1 3.94528 3.14471 6.4788
889 1 13.3463 3.36566 4.69387
890 1 0.0331753 3.95577 5.61952
891 1 1.02576 3.54143 4.95598
892 1 1.1423 4.13949 5.72996
893 1 2.25272 3.70562 4.86885
894 1 2.14497 4.16528 5.64527
895 1 3.28699 3.744 4.86529
896 1 3.36855 4.39093 5.71835
897 1 13.3553 0.175518 8.04099
898 1 0.527438 0.654585 6.50387
899 1 0.505157 0.0992091 7.3755
900 1 1.10218 0.302747 8.10527
901 1 1.60061 0.874983 6.47688
902 1 1.5978 0.392344 7.28418
903 1 2.20654 0.348203 8.06987
904 1 2.73387 0.925498 6.56815
905 1 2.67826 0.20355 7.3016
906 1 3.24733 0.396035 8.24075
907 1 3.79565 1.04437 6.42251
908 1 3.7939 0.475855 7.29749
909 1 0.113872 1.16418 8.12118
910 1 0.411889 1.75713 6.381
911 1 0.486894 1.38748 7.1708
912 1 1.13914 1.43233 8.20498
913 1 1.58095 1.99345 6.57248
914 1 1.6145 1.46263 7.28674
915 1 2.21564 1.39024 8.09509
916 1 2.75998 2.03284 6.48328
917 1 2.78549 1.50145 7.35026
918 1 3.44043 0.85127 8.91728
919 1 3.87747 2.66272 7.32362
920 1 4.08591 1.49803 7.22415
921 1 0.0459698 2.20165 8.20513
922 1 0.525472 2.93857 6.44997
923 1 0.556084 2.40664 7.22108
924 1 1.05354 2.42611 8.17015
925 1 1.56408 3.12762 6.60617
926 1 1.62682 2.55943 7.36504
927 1 2.17737 2.54948 8.16595
928 1 2.78737 3.28972 6.51853
929 1 2.78402 2.70494 7.32182
930 1 3.36666 2.02526 8.88436
931 1 3.3191 3.84967 8.16931
932 1 3.38116 2.62254 8.15129
933 1 13.3772 3.37816 8.18524
934 1 0.520176 4.02739 6.57342
935 1 0.521849 3.46131 7.45491
936 1 1.15034 3.61951 8.16602
937 1 1.66464 4.1318 6.44106
938 1 1.67501 3.61993 7.36315
939 1 2.22724 3.67778 8.082
940 1 2.6257 4.465 6.45879
941 1 2.91646 3.76331 7.22461
942 1 3.37072 4.33682 8.96364
943 1 4.4213 4.1286 5.76727
944 1 3.73416 2.09558 6.51119
945 1 4.41469 0.356743 4.88237
946 1 4.34723 0.846233 5.78215
947 1 5.54708 0.0994954 4.83775
948 1 5.62722 0.577679 5.6941
949 1 6.68282 0.106684 4.77004
950 1 6.69068 0.601882 5.6722
951 1 7.83976 13.2459 4.83999
952 1 8.4554 0.30276 6.49141
953 1 3.88665 1.41051 4.0915
954 1 3.86207 3.69312 4.1201
955 1 5.57702 1.28467 5.0016
956 1 5.55075 1.87284 5.70492
957 1 6.82743 1.14613 4.85085
958 1 6.72406 2.64372 5.65189
959 1 7.73207 0.928093 4.74574
960 1 7.87713 1.47038 5.76298
961 1 4.35374 1.97675 5.70713
962 1 5.1149 3.60708 7.1717
963 1 5.56941 2.40996 4.8798
964 1 4.97052 2.9037 6.54161
965 1 6.59132 2.21725 4.83892
966 1 6.7015 3.8528 5.74241
967 1 7.84536 1.87819 4.83914
968 1 7.80578 2.52515 5.55261
969 1 5.65871 3.39085 4.84866
970 1 3.81449 4.26057 6.50844
971 1 5.05638 4.66225 4.14856
972 1 5.69101 4.43728 4.95621
973 1 6.76094 3.30665 4.97925
974 1 6.72102 4.41735 4.90671
975 1 7.81096 3.72337 5.61504
976 1 8.41448 3.52884 6.47157
977 1 4.35656 0.337238 7.98451
978 1 5.08333 0.762495 6.41865
979 1 4.95183 0.270806 7.26694
980 1 5.55185 0.150438 8.09227
981 1 6.14266 0.586669 6.54945
982 1 6.16908 0.00173588 7.34047
983 1 6.55745 12.8732 8.88814
984 1 7.81827 0.476933 5.5706
985 1 6.69584 0.088181 8.11011
986 1 7.7502 13.239 8.14199
987 1 8.40161 13.1776 7.33025
988 1 8.34541 12.6469 6.41941
989 1 4.50921 1.52016 8.17313
990 1 4.94856 1.79813 6.47061
991 1 5.03513 1.37112 7.32245
992 1 5.60166 1.06792 8.18377
993 1 6.11363 1.65641 6.48114
994 1 6.11276 1.16288 7.24325