data.lammps (converted from cfg to data.lammps)
    
2298  atoms
1  atom types
0.0   13.4375  xlo xhi
0.0   13.4375  ylo yhi
0.0   12.952  zlo zhi
0.0  0.0 0.0 xy xz yz
    
    
    
Atoms
  
1 1 0.0887642 13.0362 1.62996
2 1 0.490576 0.38313 0.00528079
3 1 13.378 0.828124 1.60264
4 1 1.13096 13.2966 1.5879
5 1 1.88239 13.1796 0.835526
6 1 2.2228 0.0865151 11.3461
7 1 1.20222 0.355606 2.40972
8 1 1.60248 0.995853 0.801676
9 1 2.26923 0.243891 1.49361
10 1 2.82067 1.1054 0.767464
11 1 2.26075 0.598349 2.42358
12 1 2.76161 0.567233 0.0782717
13 1 3.19843 0.320247 1.48076
14 1 3.8405 0.739956 0.00696658
15 1 3.32113 0.715653 2.45317
16 1 3.92757 0.243141 0.769145
17 1 12.9424 0.775079 0.799846
18 1 1.16718 2.14286 11.3802
19 1 0.0901268 1.29717 2.48518
20 1 0.564163 0.757629 0.91023
21 1 1.13539 1.06955 1.6616
22 1 0.637664 1.47079 0.0351041
23 1 1.06595 2.10951 1.62282
24 1 1.6833 1.67922 0.107776
25 1 2.21748 1.28981 1.58782
26 1 2.27712 1.77872 12.3199
27 1 2.39975 1.59781 2.38516
28 1 2.77861 1.8997 3.21166
29 1 3.40008 1.26952 1.77288
30 1 3.88923 1.42092 0.920457
31 1 4.99178 1.92977 3.21004
32 1 5.49696 1.55913 1.61756
33 1 12.9006 1.94648 0.76615
34 1 0.671844 2.63153 12.9271
35 1 13.4265 2.42838 2.41954
36 1 13.4258 1.92777 1.60379
37 1 2.22334 2.36684 1.69935
38 1 1.72638 2.89284 0.0894233
39 1 1.09153 2.63284 2.38986
40 1 2.80379 2.31845 0.906213
41 1 2.9203 1.6768 0.131429
42 1 2.84606 2.91223 0.139481
43 1 2.16033 2.8624 2.49656
44 1 3.33669 2.26931 1.65639
45 1 3.47103 1.87667 2.62404
46 1 3.9533 2.93362 12.9446
47 1 2.71497 3.03163 3.20629
48 1 3.94327 2.48981 0.986994
49 1 13.3845 3.10056 1.64143
50 1 0.449034 2.96239 0.791001
51 1 0.0318142 3.67971 2.38461
52 1 1.06684 3.24979 1.52243
53 1 0.620077 1.86019 0.800194
54 1 1.78958 3.95943 12.9272
55 1 1.17616 3.69992 2.41963
56 1 1.67883 3.42319 0.960742
57 1 2.15129 3.30115 1.65712
58 1 2.77792 4.15638 0.0963157
59 1 2.21854 3.94255 2.4146
60 1 2.82751 3.51166 0.88024
61 1 3.41151 3.52106 1.70446
62 1 3.90402 4.1317 0.026679
63 1 3.29815 4.13637 2.4469
64 1 3.91711 3.56031 0.75807
65 1 13.4259 0.228769 2.41158
66 1 0.774353 0.361251 3.18279
67 1 1.81813 0.716098 3.23209
68 1 1.63803 0.0262958 3.95781
69 1 2.87487 0.691629 3.34668
70 1 2.77619 13.3241 3.97405
71 1 3.91464 0.753013 3.32439
72 1 3.87707 0.0812463 4.1124
73 1 0.438089 1.48615 3.47459
74 1 0.414818 0.760812 3.88604
75 1 1.06383 1.48088 2.47032
76 1 1.59525 1.09842 4.09068
77 1 1.68114 1.75959 3.20281
78 1 2.17679 1.05081 4.78666
79 1 3.84134 2.50787 3.85923
80 1 4.47408 1.95559 2.44281
81 1 0.54167 2.5332 3.27329
82 1 0.629742 2.08774 4.15456
83 1 1.59253 2.80023 3.30453
84 1 1.76057 2.28729 4.02983
85 1 2.79055 2.39226 4.05699
86 1 3.45478 2.38401 4.7746
87 1 3.33052 2.91392 2.40753
88 1 4.46046 2.52282 4.72442
89 1 0.558582 3.68615 3.1292
90 1 0.518759 3.1935 4.03482
91 1 1.65566 4.04633 3.27244
92 1 1.64537 3.39289 4.07681
93 1 2.86141 4.09726 3.24976
94 1 2.81865 3.46202 4.06173
95 1 3.93592 4.13284 3.31589
96 1 3.75588 3.07223 3.18031
97 1 4.38026 0.260868 1.64082
98 1 5.05491 0.80766 12.9162
99 1 4.57236 1.32756 1.72159
100 1 4.92363 0.264606 0.804988
101 1 5.6158 0.316776 1.52248
102 1 6.17941 0.898824 12.8642
103 1 5.18999 0.91722 3.16618
104 1 6.10841 0.388074 0.695932
105 1 6.72752 0.207406 1.62711
106 1 7.23937 0.917487 0.0551727
107 1 6.76019 0.847152 2.4345
108 1 7.84578 0.272619 1.55292
109 1 7.19636 0.201409 0.810466
110 1 7.94604 1.26464 11.2275
111 1 7.82427 0.696949 2.42586
112 1 8.42324 0.153042 0.866507
113 1 4.97901 1.42636 0.787198
114 1 4.4371 1.98053 12.0782
115 1 3.91343 1.58692 3.46064
116 1 6.04111 1.46123 0.890635
117 1 6.19394 1.95055 12.9211
118 1 6.30939 2.49033 0.820553
119 1 5.67583 2.00612 2.39406
120 1 5.07693 1.98258 0.104194
121 1 6.68603 1.35588 1.56636
122 1 6.70113 2.06172 12.1229
123 1 6.69513 1.85314 2.3823
124 1 7.26296 1.37154 0.787739
125 1 7.86035 1.26176 1.55151
126 1 8.41243 1.79115 12.891
127 1 7.73778 1.71843 2.56814
128 1 7.88178 1.78068 12.0174
129 1 4.54706 2.64914 1.56674
130 1 4.96411 3.09163 12.9035
131 1 4.43966 3.04724 2.53239
132 1 5.09319 2.62832 0.86664
133 1 5.7642 2.75278 1.63253
134 1 6.14641 3.01657 0.0982445
135 1 5.47188 3.11868 2.46122
136 1 6.78707 2.60726 1.71996
137 1 7.99784 2.80463 2.40928
138 1 7.78047 2.83409 12.0276
139 1 6.64902 3.12648 2.5011
140 1 7.31714 1.92066 12.8979
141 1 7.28146 2.51551 0.749084
142 1 8.4332 2.94816 12.8666
143 1 7.80364 3.5525 1.76262
144 1 7.74054 2.3171 1.69798
145 1 4.44514 3.81571 1.63105
146 1 5.06172 4.23292 0.0808444
147 1 4.43772 4.21116 2.40495
148 1 5.10653 3.74331 0.846995
149 1 5.64324 3.72076 1.59644
150 1 6.30129 4.31916 0.000112056
151 1 5.62656 4.25552 2.46457
152 1 6.07097 3.72594 0.698707
153 1 7.26764 4.01609 0.025006
154 1 6.78356 4.14434 12.1289
155 1 6.65089 3.81442 1.53734
156 1 7.38 3.50932 0.974791
157 1 7.76159 4.13351 2.34088
158 1 8.32394 3.96819 12.9466
159 1 8.41861 3.98364 3.26194
160 1 8.33876 3.27866 0.882167
161 1 5.64003 0.881698 2.29367
162 1 4.98495 13.2071 3.06452
163 1 6.18878 0.875092 3.32232
164 1 6.17546 0.250501 4.01648
165 1 7.26137 0.764107 3.31073
166 1 7.2826 0.15851 3.98651
167 1 8.36705 0.666007 3.18132
168 1 8.45608 0.0316688 3.91573
169 1 4.9065 1.35864 4.0008
170 1 4.19493 1.46927 4.67201
171 1 6.05155 2.00356 3.25116
172 1 6.15784 1.46498 4.04961
173 1 7.11862 1.95373 3.2692
174 1 7.36574 1.37994 4.01271
175 1 8.46998 1.84543 3.26972
176 1 8.42482 1.18512 3.98098
177 1 4.91272 3.09038 3.33176
178 1 5.05701 2.46993 4.01693
179 1 6.09043 3.05489 3.24116
180 1 6.25751 2.5091 4.05255
181 1 7.25832 3.07058 3.10408
182 1 7.38782 2.54755 3.98537
183 1 8.41267 2.88445 3.20768
184 1 8.28738 2.27414 4.0958
185 1 5.05273 3.73634 4.0653
186 1 4.52535 3.6693 4.86611
187 1 6.73322 4.19805 2.51319
188 1 6.23108 3.61715 4.03038
189 1 7.35014 4.03593 3.2889
190 1 7.17365 3.58147 4.14408
191 1 8.50803 5.18745 3.22462
192 1 7.83488 3.36135 4.74714
193 1 9.01237 0.094969 1.67424
194 1 8.98019 0.568645 12.2418
195 1 8.97253 0.487437 2.50795
196 1 9.53438 13.377 0.786749
197 1 10.0986 13.2785 1.65923
198 1 10.7466 0.408622 0.00487144
199 1 10.209 0.256921 2.48985
200 1 10.5966 13.3724 0.752263
201 1 11.112 13.1085 1.6375
202 1 11.3143 0.326811 12.1929
203 1 11.2322 0.27044 2.45083
204 1 11.7492 13.136 0.899032
205 1 12.318 13.1991 1.59561
206 1 11.8761 0.315026 0.117845
207 1 12.2839 0.256781 2.50049
208 1 12.9947 13.0466 0.924806
209 1 8.43062 1.24403 0.624311
210 1 9.57408 2.11266 0.894175
211 1 8.9693 1.19164 1.70942
212 1 9.43897 0.521872 0.00849781
213 1 9.36435 1.02211 0.881233
214 1 9.98034 2.72044 12.2276
215 1 10.0153 1.54199 2.35395
216 1 10.3983 0.925332 0.845845
217 1 11.1251 0.842633 1.55516
218 1 11.8457 1.96018 0.770048
219 1 11.154 1.3281 2.6109
220 1 11.7295 0.822406 0.920484
221 1 12.3132 0.890608 1.61342
222 1 12.3674 0.337765 12.0727
223 1 12.3475 1.28524 2.4033
224 1 0.671522 13.122 0.765304
225 1 8.89655 2.29789 1.58604
226 1 8.91989 2.84272 12.0775
227 1 9.52295 2.62269 3.28844
228 1 10.0557 2.04237 1.70832
229 1 10.1146 0.794778 1.7892
230 1 9.9928 2.19291 11.4677
231 1 10.2234 2.65806 2.49364
232 1 10.6767 2.02206 0.867395
233 1 11.2058 1.77374 1.54797
234 1 12.4336 2.40592 12.0917
235 1 11.2119 2.33512 2.31518
236 1 11.8303 2.56027 12.9096
237 1 12.3747 1.9414 1.61032
238 1 11.8865 3.53541 12.8097
239 1 12.3542 2.44834 2.38537
240 1 12.8938 1.35848 12.9356
241 1 9.06148 2.78327 2.32264
242 1 9.6877 4.43584 1.01929
243 1 8.96365 3.42429 1.59639
244 1 9.43175 3.38464 0.676176
245 1 10.0675 3.22888 1.65875
246 1 10.6113 3.82115 12.8879
247 1 10.0195 4.05161 1.96715
248 1 10.1197 3.30315 11.3649
249 1 11.1869 3.02228 1.73002
250 1 12.4827 3.63226 12.0761
251 1 11.2435 4.22796 1.74497
252 1 11.7077 4.04106 0.782745
253 1 12.227 3.09923 1.55995
254 1 12.8181 2.96697 0.869087
255 1 12.2753 3.55326 2.47295
256 1 12.9814 2.39658 12.8913
257 1 9.60904 0.601311 3.26308
258 1 9.55464 13.3902 3.96589
259 1 10.6378 0.387763 3.31778
260 1 10.5919 13.2153 4.05947
261 1 11.7537 0.167261 3.26174
262 1 11.7673 12.9743 4.11159
263 1 12.8807 0.186507 3.19074
264 1 12.9323 13.0772 3.99003
265 1 8.92313 1.63679 2.44302
266 1 9.54032 1.15425 4.19821
267 1 10.4098 1.48463 3.30451
268 1 10.8181 0.86946 4.09307
269 1 11.7065 1.42424 3.1906
270 1 11.8233 0.802479 3.95395
271 1 12.8428 1.35863 3.18562
272 1 12.78 0.715206 4.09985
273 1 9.4806 2.42357 4.24783
274 1 9.40802 1.6559 3.35536
275 1 10.8313 2.59212 3.24957
276 1 10.6051 2.07252 4.01028
277 1 11.8468 2.45077 3.18948
278 1 11.6866 1.91668 4.02998
279 1 12.9002 2.2914 3.29825
280 1 12.9222 1.86944 4.15692
281 1 9.87048 3.77727 2.89766
282 1 9.55766 3.46061 3.76153
283 1 12.9835 3.4083 3.19855
284 1 10.6058 3.08751 4.0881
285 1 11.099 3.64389 2.37143
286 1 11.8166 2.9767 3.99683
287 1 11.7561 3.60672 3.23129
288 1 12.9261 3.08041 4.0357
289 1 13.4218 4.26403 1.4832
290 1 0.480903 4.89701 0.0113226
291 1 0.0261456 4.83969 2.51353
292 1 0.699087 4.30969 0.759466
293 1 1.03957 4.42338 1.78594
294 1 1.77841 4.99624 12.8813
295 1 1.04858 5.06709 2.46299
296 1 1.60323 4.48709 0.883187
297 1 2.13194 4.49388 1.67045
298 1 2.89706 5.10446 0.0260653
299 1 2.26593 5.08075 2.45654
300 1 2.71038 4.64446 0.925062
301 1 3.38923 4.70166 1.58055
302 1 3.91245 5.3544 0.000104592
303 1 3.3628 5.20336 2.47157
304 1 3.94786 4.69174 0.736527
305 1 13.4333 5.31821 1.57737
306 1 0.696987 5.88614 12.8833
307 1 13.4313 5.90847 2.42619
308 1 0.51226 5.50833 0.770814
309 1 1.18597 5.46912 1.52547
310 1 1.68932 6.17965 0.121198
311 1 1.1307 6.0947 2.36948
312 1 1.78977 5.54695 0.723246
313 1 2.2172 5.59034 1.67564
314 1 2.84425 6.16934 12.8927
315 1 2.29062 6.28512 2.35585
316 1 2.82956 5.77748 0.748891
317 1 3.32417 5.72734 1.5149
318 1 3.89933 6.60194 0.138333
319 1 3.39848 6.18774 2.41704
320 1 3.98931 5.92103 0.753639
321 1 0.0286302 6.51423 1.69467
322 1 0.472708 7.04852 12.8662
323 1 0.0768218 7.10478 2.41954
324 1 0.507041 6.54182 0.742499
325 1 1.1525 6.46274 1.52336
326 1 1.63158 7.21518 0.136299
327 1 1.19989 7.1436 2.40345
328 1 1.78727 6.78396 0.866556
329 1 2.31294 6.8632 1.59017
330 1 2.69775 7.28979 12.8749
331 1 2.17482 7.26613 2.45307
332 1 2.8993 6.88712 0.841662
333 1 3.41357 6.79619 1.75814
334 1 3.98115 7.70172 0.0307956
335 1 3.30833 7.39802 2.4381
336 1 3.88697 7.11545 0.959116
337 1 13.3727 7.63833 1.60176
338 1 0.56941 8.27645 0.031858
339 1 13.4099 8.15367 2.41582
340 1 0.528051 7.5857 0.791705
341 1 1.04424 7.64056 1.51783
342 1 1.67372 8.33689 0.0282769
343 1 1.08715 8.23829 2.36627
344 1 1.60445 7.91541 0.810281
345 1 2.19398 7.98795 1.71018
346 1 2.87298 8.45993 0.110789
347 1 2.245 8.43401 2.52824
348 1 2.71389 7.90474 0.793592
349 1 3.36959 8.00206 1.65597
350 1 3.95433 8.70061 0.0813875
351 1 2.66517 9.6497 3.25054
352 1 3.91721 8.15148 0.863968
353 1 0.622471 4.67414 3.19408
354 1 0.567067 4.241 4.11486
355 1 1.68568 5.04088 3.18741
356 1 1.7317 4.43127 4.1345
357 1 2.75817 5.16828 3.3365
358 1 2.7122 4.50754 3.97422
359 1 3.89041 5.32777 3.27191
360 1 3.93248 4.79566 4.07287
361 1 0.612746 5.96394 3.3341
362 1 0.535424 5.33451 3.89013
363 1 1.71812 6.13429 3.18499
364 1 1.63599 5.51706 4.15134
365 1 2.77733 6.23511 3.21649
366 1 2.85767 5.68409 4.07351
367 1 3.94514 6.4955 3.32721
368 1 3.93556 5.88767 4.08002
369 1 0.601934 7.18011 3.24678
370 1 0.576011 6.60649 4.00302
371 1 1.67363 7.35033 3.24191
372 1 1.72504 6.6471 3.97235
373 1 2.71738 7.3017 3.29411
374 1 2.82828 6.84118 4.1699
375 1 5.0503 7.80428 3.26019
376 1 3.42171 6.93646 5.04081
377 1 0.543942 8.22105 3.19964
378 1 0.473496 7.63632 4.08159
379 1 1.55542 8.46343 3.21589
380 1 1.69557 7.80043 4.05117
381 1 3.90679 8.5428 3.29727
382 1 2.8552 7.94738 3.97882
383 1 3.84476 7.43748 3.07882
384 1 3.93849 7.94229 4.05778
385 1 4.48814 4.88035 1.54818
386 1 4.95902 5.41409 12.9177
387 1 4.48688 5.2378 2.39674
388 1 5.15813 4.97819 0.776492
389 1 5.54961 5.36902 2.46053
390 1 6.17325 4.84709 0.788298
391 1 6.11811 5.4474 3.19478
392 1 5.59985 4.8814 1.68612
393 1 6.67735 4.86935 1.60198
394 1 6.84758 5.44201 12.1121
395 1 6.72375 5.28575 2.42718
396 1 7.31911 4.62468 0.811075
397 1 7.7988 4.7601 1.59455
398 1 8.47189 5.05857 12.9179
399 1 7.87597 5.24315 2.48719
400 1 8.40239 4.44569 0.766782
401 1 4.4975 5.94955 1.62961
402 1 4.94128 6.51457 0.0793345
403 1 4.50406 6.4247 2.47686
404 1 5.13683 6.03025 0.921618
405 1 5.71579 5.93528 1.69424
406 1 5.93716 6.41356 0.0273286
407 1 6.18759 6.51774 3.25573
408 1 6.28002 5.90571 0.741995
409 1 6.71605 5.99557 1.71365
410 1 7.36302 5.82223 0.758698
411 1 6.71844 6.39914 2.39604
412 1 7.31552 5.16489 0.043714
413 1 7.73184 5.7918 1.5867
414 1 8.52267 6.20194 12.9134
415 1 7.84456 6.30122 2.54832
416 1 8.49273 5.67808 0.761221
417 1 4.47133 7.07358 1.67275
418 1 5.15582 7.61273 0.0287442
419 1 4.59331 7.55181 2.49318
420 1 5.09997 7.11259 0.894992
421 1 5.57164 6.49061 2.51366
422 1 6.1969 7.59178 0.000582703
423 1 5.62796 7.10805 1.54425
424 1 6.28954 7.00471 0.849866
425 1 6.7881 7.12658 1.64187
426 1 7.32731 7.69461 0.0336768
427 1 6.65057 7.51522 2.51709
428 1 7.329 7.00856 0.780739
429 1 7.89144 6.84895 1.60699
430 1 8.48964 6.73986 0.803143
431 1 7.76377 7.39378 2.34619
432 1 8.98336 6.61833 1.65445
433 1 4.56335 8.20279 1.73106
434 1 5.06333 8.80807 0.0598911
435 1 4.4496 8.7224 2.46087
436 1 5.01755 8.21066 0.816134
437 1 5.67025 7.58571 2.44956
438 1 6.12438 8.69791 0.059596
439 1 5.64657 8.16558 1.60584
440 1 6.24552 8.04432 0.824261
441 1 6.77312 8.19287 1.62166
442 1 7.18717 8.75913 12.9433
443 1 6.75848 8.69873 2.47304
444 1 7.32569 8.10011 0.810771
445 1 7.95688 8.0112 1.66504
446 1 8.49777 7.91441 0.840058
447 1 7.81397 9.12745 1.75562
448 1 8.33181 7.33649 0.0833938
449 1 4.9778 5.39223 3.33535
450 1 5.0152 4.22943 3.16274
451 1 6.24337 5.94748 4.14527
452 1 6.17733 4.27683 3.22597
453 1 7.25524 5.35324 3.22312
454 1 7.31051 4.71099 3.99808
455 1 8.40379 5.63588 4.06409
456 1 8.46099 3.38434 4.03868
457 1 5.16757 5.90733 4.1144
458 1 4.50414 5.48153 5.60954
459 1 6.13755 7.07124 4.0388
460 1 6.18938 7.72461 3.41114
461 1 7.28982 6.48815 3.35146
462 1 8.40209 6.2225 6.47499
463 1 8.45766 6.2708 3.31399
464 1 7.85332 6.38526 5.67133
465 1 5.05601 8.30128 4.06076
466 1 5.11691 6.46723 3.32659
467 1 6.14367 8.73624 3.18378
468 1 5.05504 7.14616 4.00845
469 1 6.22272 8.29942 4.19474
470 1 7.3059 7.59604 3.254
471 1 8.37338 7.34044 3.23082
472 1 8.50654 6.8038 4.17557
473 1 5.09852 8.90181 3.1825
474 1 4.49015 8.1284 4.89648
475 1 5.60091 8.1336 4.83538
476 1 6.75674 8.05367 4.90122
477 1 7.20997 8.64494 3.29921
478 1 6.66685 9.21174 4.93673
479 1 7.82484 8.38774 2.46771
480 1 8.35821 7.85161 4.15715
481 1 8.91711 3.87851 2.50972
482 1 9.50569 5.0419 0.0741073
483 1 8.91784 4.46171 1.58169
484 1 10.1036 4.96987 2.396
485 1 10.5521 3.15499 0.76845
486 1 10.2452 5.02528 12.1571
487 1 10.0749 5.35197 1.70643
488 1 10.6002 4.76691 0.130362
489 1 10.6289 4.16302 0.992447
490 1 12.2726 4.7839 12.0677
491 1 11.155 4.78161 2.47952
492 1 11.6791 4.58635 12.951
493 1 12.25 4.12496 1.51417
494 1 12.8975 4.7337 0.00207131
495 1 12.4228 4.54186 2.41446
496 1 12.9047 4.09293 0.797201
497 1 8.94475 4.92664 2.37779
498 1 9.54716 6.09104 0.0465955
499 1 9.55717 6.04791 3.41995
500 1 8.7901 5.58348 1.69956
501 1 9.60531 5.63203 0.850218
502 1 10.691 5.85063 0.191732
503 1 10.0317 6.03107 2.47207
504 1 10.6802 5.24882 0.958434
505 1 11.2681 5.32963 1.60522
506 1 11.1981 5.77897 12.1794
507 1 11.2667 5.83188 2.54671
508 1 11.9011 5.09531 0.736181
509 1 12.3145 5.23356 1.72174
510 1 12.9019 5.82149 12.8346
511 1 12.3533 5.76484 2.48112
512 1 12.8568 5.33049 0.825677
513 1 9.03202 6.10088 2.46841
514 1 9.54233 7.23677 12.9226
515 1 8.94334 7.15813 2.57061
516 1 9.51765 6.78052 0.742309
517 1 10.1078 6.45198 1.55178
518 1 10.6303 6.98436 12.9501
519 1 9.97996 7.12853 2.52694
520 1 10.6593 6.57447 0.808316
521 1 11.1027 6.32061 1.69807
522 1 11.6852 6.96248 0.0662163
523 1 11.1457 6.96493 2.31229
524 1 13.0142 6.34429 0.799738
525 1 12.4119 6.3251 1.64464
526 1 12.3153 6.85604 12.2537
527 1 12.1432 6.8515 2.62059
528 1 12.8001 6.93527 0.117199
529 1 8.98631 7.69257 1.74743
530 1 10.0312 8.17966 12.0982
531 1 8.35048 8.4801 3.26805
532 1 9.46021 7.80781 0.847203
533 1 10.055 7.65436 1.78753
534 1 10.5992 8.11742 0.0487411
535 1 10.1771 8.19686 2.59736
536 1 10.5377 7.59393 0.938736
537 1 11.1606 7.52543 1.70126
538 1 11.6224 7.51561 0.866662
539 1 11.1858 8.06706 2.52923
540 1 11.8522 6.37005 0.904306
541 1 12.3104 7.35975 1.62655
542 1 12.9248 8.19685 0.0959996
543 1 12.8451 8.06075 3.28868
544 1 12.75 7.5485 0.820754
545 1 9.59718 4.94368 3.20157
546 1 9.31825 4.36728 3.98841
547 1 10.5198 4.79044 3.29479
548 1 10.7362 3.61408 3.22645
549 1 11.7266 4.73207 3.18064
550 1 11.7937 4.11682 4.14724
551 1 12.8251 4.68011 3.33343
552 1 12.748 4.12742 4.00297
553 1 9.58747 6.44501 4.15223
554 1 9.51914 5.37183 4.20924
555 1 10.6748 5.92966 3.18583
556 1 10.6301 5.50116 4.03113
557 1 11.8834 5.76329 3.371
558 1 11.6233 5.14748 4.15784
559 1 12.9603 5.74355 3.25537
560 1 12.9415 5.3031 4.15972
561 1 9.48217 8.25803 3.21282
562 1 9.56544 7.16856 3.36659
563 1 10.7913 7.00715 3.3319
564 1 10.6734 6.43108 4.15439
565 1 11.7883 6.94922 3.36334
566 1 11.8121 6.34284 4.16523
567 1 12.9524 6.80975 3.18172
568 1 12.9485 6.36641 4.13052
569 1 8.97887 8.38645 2.46913
570 1 8.93457 7.95093 4.94897
571 1 10.6671 8.13864 3.32146
572 1 10.6311 7.5803 4.13601
573 1 12.3503 8.01812 2.37071
574 1 11.6478 8.59096 4.07663
575 1 12.7846 7.41073 3.93411
576 1 12.3719 7.40023 4.81895
577 1 13.3938 8.62928 1.53437
578 1 0.512126 9.4724 0.158364
579 1 0.402334 9.25754 3.23366
580 1 0.580956 8.79388 0.825965
581 1 1.10219 8.90347 1.63843
582 1 1.66433 9.49676 0.100135
583 1 1.10344 9.51161 2.35693
584 1 1.69467 8.98867 0.866048
585 1 2.44212 8.9814 1.63577
586 1 2.84139 9.62727 0.0676842
587 1 2.17342 9.51282 2.40194
588 1 2.73569 9.10649 0.703787
589 1 3.33383 9.0712 1.65258
590 1 3.94137 9.7716 12.8572
591 1 3.44851 8.54336 2.44755
592 1 3.91205 9.27802 0.916289
593 1 13.4063 9.16435 2.37059
594 1 0.593482 10.527 12.903
595 1 13.4027 10.3533 2.45649
596 1 0.517811 9.99935 0.877879
597 1 1.08981 10.1311 1.49105
598 1 1.59187 10.8185 0.106839
599 1 1.13704 10.5806 2.47839
600 1 1.70324 10.182 0.759793
601 1 2.17576 10.0399 1.61487
602 1 2.79328 10.7849 0.0249251
603 1 2.17584 10.591 2.40322
604 1 2.79497 10.2443 0.843636
605 1 3.34979 10.1329 1.65217
606 1 3.82879 10.8464 0.0606534
607 1 3.2788 10.7903 2.24449
608 1 3.9488 10.3266 1.00943
609 1 13.3866 10.9197 1.63053
610 1 0.563745 12.6285 0.0875727
611 1 13.3347 11.4313 2.41939
612 1 0.539164 11.0906 0.530829
613 1 1.12915 11.0804 1.59308
614 1 2.29792 11.8238 12.26
615 1 1.11163 11.5822 2.397
616 1 1.7745 11.2607 0.846029
617 1 2.32467 11.1729 1.80586
618 1 3.1078 12.7875 0.913002
619 1 2.18925 11.7726 2.47927
620 1 2.74258 11.346 0.747649
621 1 3.30697 11.4584 1.6018
622 1 3.87289 11.9274 0.0699264
623 1 3.49364 11.7982 2.56887
624 1 3.95996 11.3801 0.913172
625 1 0.0632334 11.9219 1.64699
626 1 0.154078 12.6542 12.2149
627 1 13.3344 12.5239 2.41623
628 1 0.595828 11.8997 0.691572
629 1 1.03139 12.1981 1.60833
630 1 1.61437 0.404445 0.0149329
631 1 1.24325 12.7116 2.42904
632 1 1.74391 12.3131 0.839902
633 1 2.1695 12.3886 1.74075
634 1 1.62269 12.8178 12.6917
635 1 2.36777 13.0677 2.40091
636 1 2.69957 13.0475 0.101512
637 1 3.21412 12.4633 1.68535
638 1 3.90064 13.0853 12.8495
639 1 3.54088 13.1107 2.30373
640 1 4.08015 12.4681 0.763669
641 1 0.562721 9.78951 4.17089
642 1 0.50484 8.71063 4.05159
643 1 1.48678 9.48314 3.30855
644 1 1.65098 8.87817 4.1202
645 1 2.76591 8.48973 3.24766
646 1 2.75047 9.12495 3.97909
647 1 3.3441 9.64301 2.59396
648 1 3.86546 9.73317 3.30737
649 1 0.424307 10.4146 3.30382
650 1 13.3783 9.72639 4.86469
651 1 1.65385 10.6584 3.27183
652 1 1.6399 9.94896 3.98103
653 1 2.75454 10.7075 3.32471
654 1 2.79483 10.3217 4.18246
655 1 3.7102 10.7736 3.03392
656 1 3.92516 10.3617 4.0328
657 1 0.638174 11.5431 3.20941
658 1 0.528658 10.8491 4.0157
659 1 1.7361 11.7231 3.39143
660 1 1.62551 11.0543 4.1113
661 1 2.82337 11.9556 3.09937
662 1 2.81048 11.3711 4.00266
663 1 3.97465 12.0757 3.28875
664 1 3.91061 11.3989 4.00884
665 1 0.508009 13.1512 3.89963
666 1 0.619567 12.6312 3.06218
667 1 1.7798 12.9351 3.19948
668 1 1.71946 12.3158 3.99025
669 1 2.96747 12.9647 3.12335
670 1 2.93014 12.2801 4.08966
671 1 4.06804 13.1498 3.14414
672 1 3.99267 12.5905 4.06628
673 1 4.4962 9.32075 1.63019
674 1 4.89035 9.97142 12.9404
675 1 4.40385 9.89838 2.34881
676 1 5.01504 9.32393 0.863463
677 1 5.7021 9.35349 1.6952
678 1 6.17246 11.1258 0.0577936
679 1 5.48896 9.83507 2.49182
680 1 6.22242 9.23258 0.780502
681 1 6.80378 9.24718 1.60526
682 1 7.22014 9.69196 12.9216
683 1 6.63534 9.79752 2.5431
684 1 7.40651 9.32279 0.780266
685 1 8.3719 8.98687 0.93804
686 1 8.37972 9.46351 0.0149974
687 1 7.91797 10.2631 1.54203
688 1 8.328 8.48264 12.943
689 1 4.49592 10.6686 1.6989
690 1 4.94094 11.0446 0.00557604
691 1 4.47274 10.9882 2.55973
692 1 5.06756 10.4429 0.863073
693 1 5.58387 10.4579 1.61944
694 1 5.57959 10.8641 12.092
695 1 5.64633 10.917 2.46401
696 1 6.04876 9.92647 12.9421
697 1 6.12079 10.444 0.803137
698 1 7.22873 11.0061 0.0374446
699 1 6.69311 11.0041 2.37396
700 1 6.77392 10.3238 1.66451
701 1 7.17162 10.433 0.818952
702 1 8.178 10.6562 12.9067
703 1 7.76077 10.8015 2.37712
704 1 8.2877 10.1929 0.7318
705 1 4.50691 11.7329 1.66545
706 1 5.08568 12.0532 12.9015
707 1 4.50541 12.0955 2.48127
708 1 5.12352 11.4913 0.844696
709 1 5.68064 11.5423 1.6929
710 1 6.12714 12.1252 0.00587359
711 1 5.61064 12.1273 2.43324
712 1 6.13641 11.583 0.889529
713 1 6.77027 11.5347 1.58066
714 1 7.15172 11.9453 0.097337
715 1 6.65433 12.0736 2.47194
716 1 7.45547 11.5109 0.905746
717 1 7.99965 11.3806 1.62277
718 1 8.33703 11.7962 0.0387928
719 1 7.80887 11.91 2.32666
720 1 8.55627 11.3456 0.875625
721 1 4.3832 12.6972 1.78005
722 1 5.11318 13.1587 12.9333
723 1 4.43323 0.740033 2.45497
724 1 5.05452 12.6087 0.871751
725 1 5.72103 12.6263 1.64297
726 1 6.20952 13.2138 12.9283
727 1 5.3658 13.1977 2.2422
728 1 6.16066 12.725 0.82205
729 1 6.87789 12.6409 1.61514
730 1 7.40014 13.1881 12.9274
731 1 6.52427 13.1992 2.50388
732 1 7.30997 12.5246 0.763356
733 1 8.01157 12.5505 1.59777
734 1 8.468 12.8111 12.8195
735 1 7.79293 13.1398 2.37818
736 1 8.41265 12.5107 0.723947
737 1 4.90177 9.80302 3.23202
738 1 5.03965 9.26872 4.12648
739 1 6.14337 9.97013 3.24053
740 1 6.10073 9.37107 4.02982
741 1 7.83645 9.64205 2.42798
742 1 7.34045 9.11131 4.02011
743 1 8.36181 9.5845 3.32756
744 1 9.07671 8.95441 4.82336
745 1 5.02338 11.049 3.17425
746 1 4.96108 10.4235 3.97168
747 1 6.30905 11.0131 3.28438
748 1 5.9592 10.4815 4.0776
749 1 7.2614 10.8825 3.34781
750 1 7.06702 10.3251 4.12004
751 1 8.30937 10.6209 3.26766
752 1 8.29369 10.1413 4.05075
753 1 5.11965 12.1616 3.27199
754 1 5.03718 11.6699 4.03824
755 1 6.13716 12.0482 3.39616
756 1 6.21675 11.5264 4.2304
757 1 7.29791 11.9336 3.14789
758 1 7.44295 11.5257 4.11287
759 1 8.43176 11.8075 3.20704
760 1 8.45549 11.174 4.05879
761 1 4.92875 0.358547 4.02236
762 1 5.11877 12.8187 4.12116
763 1 5.96559 13.133 3.20894
764 1 6.21785 12.6412 4.0587
765 1 7.16727 12.9717 3.13346
766 1 7.30643 12.5351 4.03955
767 1 8.34582 12.9226 3.11419
768 1 8.43628 12.3457 4.02652
769 1 9.02473 8.93979 1.59434
770 1 9.48768 8.80059 0.790651
771 1 8.95642 9.4966 2.42057
772 1 9.59174 9.37083 12.9463
773 1 9.98836 8.79013 1.69803
774 1 10.054 9.24149 12.1157
775 1 10.1819 9.37193 2.37595
776 1 10.5153 8.66281 0.722703
777 1 11.0179 8.68574 1.61865
778 1 11.6804 9.08625 0.0802117
779 1 11.3188 9.21139 2.44209
780 1 11.5926 8.57737 0.932705
781 1 12.2567 8.45893 1.51858
782 1 12.868 9.28447 12.9014
783 1 12.379 9.15123 2.30876
784 1 12.7752 8.73444 0.790256
785 1 8.99193 10.0669 1.67025
786 1 9.56233 10.4906 0.0535705
787 1 8.8421 10.6401 2.47263
788 1 9.24707 9.94081 0.710881
789 1 10.0377 9.89744 1.46675
790 1 11.2113 9.7074 1.63112
791 1 10.0856 10.432 2.29678
792 1 10.6311 9.32115 12.9285
793 1 11.6889 9.66123 0.841192
794 1 11.8889 10.2802 0.0599753
795 1 11.6758 10.314 3.21825
796 1 12.7268 9.77817 0.848206
797 1 12.3309 9.80714 1.62805
798 1 12.946 10.4458 0.0463806
799 1 12.2309 10.2007 2.51401
800 1 13.4152 9.85577 1.57281
801 1 9.08818 11.1533 1.76738
802 1 9.49996 11.7049 12.8416
803 1 8.98402 11.8152 2.51108
804 1 9.38646 11.1098 0.712784
805 1 10.0937 11.1399 1.55705
806 1 10.5844 11.4541 12.9338
807 1 10.0122 11.6406 2.45082
808 1 10.6124 9.81732 0.842156
809 1 10.4558 10.8538 0.894737
810 1 11.5638 10.8272 0.687548
811 1 11.0359 11.4126 2.45576
812 1 11.2855 10.9563 1.53305
813 1 12.2759 10.9396 1.6248
814 1 12.9615 11.5094 0.167844
815 1 12.3257 11.2769 2.50022
816 1 12.7375 10.9197 0.827976
817 1 9.01749 12.3701 1.56043
818 1 9.5729 12.7608 0.0199307
819 1 8.96879 12.9438 2.37696
820 1 9.51687 12.2315 0.810148
821 1 10.156 12.2322 1.46026
822 1 10.6891 12.7466 0.0199975
823 1 10.0369 12.5052 2.48044
824 1 10.6619 12.0318 0.69553
825 1 11.212 12.0334 1.68271
826 1 13.4187 12.0375 11.2566
827 1 11.2151 12.5886 2.44418
828 1 11.6489 12.024 0.813641
829 1 12.298 11.9885 1.63638
830 1 11.7978 12.6531 0.0186163
831 1 12.3083 12.532 2.39931
832 1 12.6801 12.0935 0.823109
833 1 9.41286 9.48643 3.15894
834 1 10.1358 8.90904 4.90218
835 1 10.5767 9.24175 3.15006
836 1 10.5888 8.80559 4.03635
837 1 11.1039 10.454 2.31539
838 1 11.8508 8.11118 3.11123
839 1 12.8466 9.18006 3.27959
840 1 12.9217 8.5971 4.17097
841 1 9.57895 10.5797 3.07663
842 1 9.48649 9.99884 3.93914
843 1 10.6233 10.3608 3.23408
844 1 10.5993 9.89673 3.99064
845 1 11.7174 9.71336 4.01274
846 1 11.8708 9.19087 3.2194
847 1 12.9011 10.3362 3.3366
848 1 12.78 9.73613 4.142
849 1 9.55515 11.6512 3.38051
850 1 9.46645 11.0239 4.07436
851 1 10.6076 11.5788 3.34581
852 1 10.5656 11.0183 4.0967
853 1 11.7128 11.5074 3.09256
854 1 11.7469 10.7552 4.02963
855 1 12.8901 11.4618 3.34255
856 1 12.8111 10.8562 4.1799
857 1 9.53295 12.9023 3.20325
858 1 9.50218 12.2887 4.01148
859 1 10.7902 12.6938 3.22899
860 1 10.671 12.1497 4.03259
861 1 11.825 12.5737 3.36022
862 1 11.8099 11.7775 4.00783
863 1 12.89 12.4633 3.21088
864 1 12.8589 12.0458 4.06495
865 1 0.0330739 13.0423 4.81845
866 1 0.156082 0.171206 5.58116
867 1 1.15852 13.3497 4.79565
868 1 1.23624 0.383547 5.64844
869 1 2.23988 12.937 5.63781
870 1 2.24752 0.0236121 4.69406
871 1 3.36464 0.274314 4.83733
872 1 3.25552 0.861212 5.73513
873 1 0.0832886 0.719746 4.81875
874 1 0.0567105 1.27803 5.78574
875 1 1.06531 1.02591 4.92456
876 1 1.28377 1.58544 5.68945
877 1 2.29732 0.533633 5.6652
878 1 2.34787 1.6761 5.52045
879 1 2.67734 1.27293 4.0034
880 1 3.28554 1.83528 5.67498
881 1 0.0169533 1.8324 4.95437
882 1 0.0592398 2.42679 5.57299
883 1 1.1508 2.09781 4.86111
884 1 1.12628 2.62836 5.73053
885 1 2.4007 2.25696 4.85144
886 1 2.30085 2.81228 5.64931
887 1 3.36325 2.92353 5.56538
888 1 3.98196 3.11942 6.42923
889 1 13.4306 3.02298 4.78894
890 1 13.3981 3.66459 5.48895
891 1 1.09636 3.23849 4.85521
892 1 1.10347 3.79429 5.63461
893 1 2.20082 3.42254 4.91031
894 1 2.18261 3.98292 5.70499
895 1 3.28829 3.58654 4.86411
896 1 3.44548 4.061 5.69328
897 1 13.393 12.9886 8.09154
898 1 0.652536 0.282605 6.49058
899 1 0.583126 13.1917 7.30375
900 1 0.958794 13.3213 8.13116
901 1 1.71479 0.567803 6.4535
902 1 1.6136 13.3702 7.4034
903 1 2.25738 0.131432 8.01169
904 1 2.79282 0.582915 6.50104
905 1 2.98431 0.0523569 7.22486
906 1 3.40149 0.2688 7.91922
907 1 4.00858 0.745357 6.33651
908 1 4.14009 0.133378 7.25506
909 1 13.4332 0.64632 8.15032
910 1 0.625057 1.38159 6.41625
911 1 0.575062 0.912183 7.26213
912 1 1.04701 1.01369 8.07429
913 1 1.83579 1.63208 6.48457
914 1 1.57363 1.07019 7.30773
915 1 2.27282 1.21131 7.92849
916 1 2.75986 1.95047 6.56277
917 1 2.80032 1.22792 7.2263
918 1 3.25179 0.664556 8.95816
919 1 3.92826 2.51182 7.20122
920 1 3.89084 1.29803 7.1802
921 1 0.178932 1.81335 8.00276
922 1 0.530965 2.61247 6.4039
923 1 0.663892 2.04933 7.12762
924 1 1.16463 2.28052 8.20046
925 1 1.70934 2.82498 6.4041
926 1 1.61778 2.098 7.18275
927 1 2.22434 2.28796 8.15438
928 1 2.77443 2.96103 6.4248
929 1 2.73817 2.4361 7.45148
930 1 3.35198 1.82832 8.82872
931 1 3.41249 3.54323 8.13755
932 1 3.49448 2.34113 7.93424
933 1 0.0156689 2.89491 8.01774
934 1 0.558327 3.75817 6.39206
935 1 0.575633 3.12484 7.22365
936 1 1.17651 3.27383 8.02747
937 1 1.67349 3.88926 6.6117
938 1 1.62962 3.1659 7.19456
939 1 2.26646 3.34377 8.11335
940 1 2.89859 4.04766 6.4025
941 1 2.75435 3.47619 7.25934
942 1 3.45668 4.0291 8.98716
943 1 4.52278 4.28865 5.52389
944 1 3.82447 1.89794 6.43757
945 1 4.40265 0.330468 4.87414
946 1 4.44182 0.952857 5.57146
947 1 5.59812 0.304883 4.79978
948 1 5.57922 0.941207 5.55987
949 1 6.71317 0.261654 4.81259
950 1 6.71638 0.879909 5.605
951 1 7.87581 0.0976124 4.65597
952 1 8.34387 0.607423 6.32344
953 1 3.3356 1.32571 4.51447
954 1 3.97466 3.58361 4.09775
955 1 5.47321 1.4145 4.73064
956 1 5.60419 1.97263 5.51162
957 1 6.76536 1.27417 4.75631
958 1 6.8635 3.00121 5.69067
959 1 7.81049 1.12772 4.82808
960 1 7.73813 1.80042 5.70603
961 1 4.49811 1.9771 5.58343
962 1 5.05004 3.67928 7.1888
963 1 5.58847 2.61722 4.75897
964 1 5.11871 3.1838 6.4322
965 1 6.69603 2.42818 4.84554
966 1 6.69479 4.39383 5.62818
967 1 7.83217 2.30918 4.99481
968 1 7.92417 3.01316 5.6673
969 1 5.63108 3.67893 4.78403
970 1 4.05932 4.29289 6.40927
971 1 5.08797 4.80895 3.95423
972 1 5.71673 4.82946 4.82247
973 1 6.65856 3.63206 5.00315
974 1 6.89281 4.765 4.80934
975 1 7.89096 4.0606 5.65909
976 1 8.51972 4.05172 6.48735
977 1 4.48149 0.350168 8.08441
978 1 5.05878 0.917788 6.44617
979 1 5.18819 0.411385 7.20351
980 1 5.57949 0.396726 8.09376
981 1 6.16302 0.99969 6.42072
982 1 6.16799 0.332123 7.21327
983 1 6.71082 13.1562 8.78679
984 1 7.75838 0.741702 5.66399
985 1 6.73395 0.376458 8.06582
986 1 7.81005 0.199513 8.07218
987 1 8.32444 0.219678 7.15905
988 1 8.45056 12.8902 6.61487
989 1 4.5012 1.48656 8.12956
990 1 4.96837 2.06615 6.36933
991 1 4.96051 1.54348 7.27283