data.lammps (converted from cfg to data.lammps)
    
2298  atoms
1  atom types
0.0   13.4375  xlo xhi
0.0   13.4375  ylo yhi
0.0   12.952  zlo zhi
0.0  0.0 0.0 xy xz yz
    
    
    
Atoms
  
1 1 13.3322 13.0781 1.65157
2 1 0.549367 0.223484 12.9323
3 1 0.0178494 0.263912 2.41193
4 1 0.415268 13.0619 0.718389
5 1 0.978224 13.1981 1.52729
6 1 1.5548 0.236802 0.0227402
7 1 1.13704 0.164964 2.44312
8 1 1.65129 13.1048 0.777218
9 1 2.1613 13.2598 1.61926
10 1 2.66527 0.535229 12.9312
11 1 2.09805 0.341212 2.4712
12 1 2.82701 13.4224 0.709701
13 1 3.2868 13.3945 1.50607
14 1 3.98969 0.645145 12.9287
15 1 3.38872 0.361368 2.44242
16 1 3.93734 13.4277 0.786576
17 1 13.3343 0.780809 1.5199
18 1 0.544297 1.31749 12.8521
19 1 13.3979 1.38698 2.35518
20 1 0.473675 0.765567 0.832249
21 1 1.16779 0.825834 1.61544
22 1 1.80979 1.36591 12.894
23 1 1.05611 1.21188 2.42644
24 1 1.65633 0.77965 0.814545
25 1 2.35 0.858941 1.55949
26 1 2.8719 1.73782 12.8655
27 1 2.19163 1.47847 2.37279
28 1 2.87752 1.16434 0.69746
29 1 3.33562 1.11277 1.69016
30 1 3.94086 1.73533 0.0790423
31 1 3.16058 1.62023 2.48387
32 1 3.83154 1.12223 0.813954
33 1 0.183508 1.96447 1.56354
34 1 0.522807 2.47818 0.112618
35 1 13.2888 2.46745 2.45977
36 1 0.650702 1.76835 0.652768
37 1 1.09801 1.90037 1.59258
38 1 1.77822 2.50605 12.9071
39 1 1.08518 2.4677 2.48513
40 1 1.7151 1.90073 0.779322
41 1 2.13968 1.92054 1.63849
42 1 2.88044 2.73613 12.8111
43 1 2.23622 2.63609 2.31398
44 1 2.82572 2.1049 0.900803
45 1 3.52153 2.10841 1.60427
46 1 4.0436 2.81676 12.9495
47 1 3.31041 2.64756 2.43566
48 1 4.0017 2.33937 0.880509
49 1 0.0309093 2.98661 1.5591
50 1 0.714481 3.62575 12.934
51 1 0.0111461 3.64922 2.30073
52 1 0.530985 3.08221 0.724329
53 1 1.12631 2.91682 1.49715
54 1 1.69444 3.62835 0.00777067
55 1 1.14222 3.54655 2.33308
56 1 1.70245 2.93707 0.816978
57 1 2.36093 3.20858 1.67304
58 1 2.75443 3.75347 12.9322
59 1 2.12255 3.76327 2.49923
60 1 2.85822 3.14128 0.792116
61 1 3.36061 3.32375 1.61971
62 1 3.96264 3.93942 12.7933
63 1 3.4414 3.75159 2.56267
64 1 3.82973 3.39187 0.697714
65 1 0.573475 0.163712 3.26807
66 1 0.578049 12.9153 4.02068
67 1 1.70108 0.292168 3.38148
68 1 1.7135 13.1394 4.03043
69 1 2.77928 0.316891 3.16669
70 1 2.91455 13.387 4.14776
71 1 3.89189 0.610678 3.26148
72 1 3.97629 13.3393 3.99229
73 1 0.602116 1.23342 3.34839
74 1 0.583966 0.6321 4.04959
75 1 1.64068 1.45192 3.24617
76 1 1.75428 0.876245 4.00331
77 1 2.63261 1.46002 3.28814
78 1 2.86936 0.999934 3.96775
79 1 3.89812 1.67732 3.18564
80 1 3.97359 1.05634 4.07892
81 1 0.46255 2.38979 3.09682
82 1 0.556194 1.9427 3.9674
83 1 1.70745 2.37981 3.14024
84 1 1.58751 1.97964 4.20621
85 1 2.71538 2.74544 3.22704
86 1 2.78789 2.10687 3.97093
87 1 3.86327 2.80048 3.35948
88 1 3.97066 2.23836 4.00651
89 1 0.559719 3.58811 3.21658
90 1 0.553376 2.95139 3.97773
91 1 1.63708 3.54899 3.23718
92 1 1.6437 2.90816 4.02081
93 1 2.7683 3.79249 3.21656
94 1 2.78717 3.26108 4.0263
95 1 3.97397 4.00994 3.1804
96 1 3.96807 3.49073 4.039
97 1 4.50211 0.0572372 1.58285
98 1 5.11373 0.756617 12.8942
99 1 4.50508 0.59997 2.45898
100 1 5.06824 0.261488 0.918393
101 1 5.78127 0.272136 1.6243
102 1 6.12454 0.774134 0.0435784
103 1 5.48306 0.879463 2.36484
104 1 6.3043 0.310406 0.807461
105 1 6.87351 0.180166 1.62838
106 1 7.30015 0.869228 0.0514724
107 1 6.6915 0.834603 2.40221
108 1 7.48587 0.424019 0.785705
109 1 7.91614 0.366309 1.65861
110 1 8.43488 0.788744 0.0480305
111 1 7.86698 0.944811 2.52845
112 1 8.50797 0.263646 0.816371
113 1 4.34309 1.21595 1.7393
114 1 5.13967 1.81909 0.00409848
115 1 4.50234 1.73165 2.53144
116 1 4.92542 1.25054 0.878364
117 1 5.57781 1.38451 1.4729
118 1 6.16412 1.95792 12.9294
119 1 5.66861 1.87789 2.45764
120 1 6.18727 1.43464 0.869096
121 1 6.81218 1.31507 1.62013
122 1 7.3438 2.01404 0.0581814
123 1 6.76421 2.07456 2.30644
124 1 7.38708 1.52267 0.844666
125 1 7.8249 1.49292 1.74099
126 1 8.3673 2.0162 12.9447
127 1 7.95293 2.12526 2.46764
128 1 8.39743 1.50917 0.830776
129 1 4.62753 2.25856 1.66128
130 1 4.99761 3.11758 0.00848633
131 1 4.32756 2.78653 2.39559
132 1 5.00027 2.40465 0.700005
133 1 5.63848 2.47063 1.52929
134 1 6.15667 3.043 12.8748
135 1 5.58538 2.95206 2.49506
136 1 6.21514 2.60026 0.749382
137 1 6.69729 2.64437 1.59978
138 1 7.21349 3.24475 12.9324
139 1 6.81162 3.31468 2.49313
140 1 7.3 2.65164 0.757958
141 1 7.72437 2.57151 1.66021
142 1 8.38265 3.06161 0.0125639
143 1 7.87358 3.16288 2.42608
144 1 8.31753 2.53001 0.92988
145 1 4.52751 3.31308 1.66012
146 1 5.0383 4.20575 0.00833249
147 1 4.54053 4.00572 2.42414
148 1 4.94096 3.51752 0.865055
149 1 5.64368 3.58992 1.69272
150 1 6.13509 4.16839 0.0307943
151 1 5.53524 4.15314 2.40576
152 1 6.091 3.68045 0.727915
153 1 7.22712 3.76778 0.836956
154 1 7.26441 4.30523 0.0330336
155 1 6.58241 3.73975 1.70012
156 1 7.72813 3.6932 1.57814
157 1 7.71278 4.32255 2.29324
158 1 8.41421 4.19243 12.8964
159 1 8.31327 4.11236 3.12331
160 1 8.47058 3.65554 0.798171
161 1 5.14777 0.669362 3.27223
162 1 4.95896 0.150835 4.23625
163 1 6.1872 0.875168 3.18481
164 1 6.11281 0.321326 4.01245
165 1 7.27397 1.07377 3.25143
166 1 7.28859 0.394591 3.89174
167 1 8.48468 0.84167 3.16486
168 1 8.41038 0.29117 3.99837
169 1 5.08436 1.81193 3.39067
170 1 5.03719 1.12692 4.00972
171 1 6.30399 1.98492 3.15867
172 1 6.07235 1.34699 4.06268
173 1 7.31052 2.02033 3.16448
174 1 7.35793 1.54768 4.16304
175 1 8.47011 1.96717 3.37958
176 1 8.44922 1.34354 4.10225
177 1 4.94653 2.96329 3.09
178 1 5.03711 2.40234 4.00002
179 1 6.09545 3.20804 3.25664
180 1 6.12987 2.55159 3.96162
181 1 7.26243 3.05421 3.11382
182 1 7.15836 2.65039 4.12348
183 1 8.45079 3.06578 3.14344
184 1 8.27918 2.62315 3.99131
185 1 5.07208 3.98003 3.30811
186 1 5.08659 3.38359 4.11179
187 1 6.78553 4.46657 2.46958
188 1 6.31532 3.65243 4.03836
189 1 7.25922 4.24806 3.33502
190 1 7.29383 3.61653 4.00313
191 1 8.4438 4.80176 3.86265
192 1 7.85191 3.67087 4.79083
193 1 8.85447 0.200134 1.73618
194 1 9.63743 0.8082 12.852
195 1 9.1025 0.876793 2.48044
196 1 9.56492 0.210367 0.805639
197 1 9.91577 13.4304 1.5904
198 1 10.5899 0.536756 0.0319343
199 1 10.0244 0.50446 2.26723
200 1 10.6773 0.0748183 0.939042
201 1 11.3026 13.365 1.55089
202 1 11.7608 0.442338 12.868
203 1 11.1128 0.43322 2.52985
204 1 11.7325 13.2404 0.772943
205 1 12.2924 13.2087 1.6108
206 1 12.8426 0.233532 0.0636586
207 1 12.3485 0.319651 2.43687
208 1 12.8662 13.0391 0.775982
209 1 8.96232 1.34006 1.60346
210 1 9.44565 1.75037 0.0513096
211 1 8.90842 2.05962 2.43394
212 1 9.48806 1.26251 0.926045
213 1 10.1868 1.22499 1.59139
214 1 10.6923 1.66891 12.8798
215 1 10.0432 1.79727 2.40969
216 1 10.651 1.15219 0.852652
217 1 11.2291 1.0396 1.81087
218 1 11.8604 1.71675 0.0282508
219 1 11.2501 1.69256 2.59872
220 1 11.6372 0.961249 0.703786
221 1 12.2085 0.875187 1.53871
222 1 12.8571 1.43882 12.9395
223 1 12.4874 1.39137 2.40407
224 1 12.7608 0.807455 0.722022
225 1 9.00706 2.39953 1.56402
226 1 9.46388 2.90477 0.0430331
227 1 9.13921 3.10643 2.39335
228 1 9.62137 2.2351 0.851878
229 1 10.1867 2.48189 1.673
230 1 10.7243 2.8059 12.943
231 1 10.0761 2.8478 2.51427
232 1 10.7198 2.18945 0.784633
233 1 11.2574 2.04763 1.623
234 1 11.7309 2.68256 12.8795
235 1 11.2692 2.70776 2.53157
236 1 11.785 2.06532 0.90106
237 1 12.3481 1.97515 1.59416
238 1 12.9386 2.58681 0.0965416
239 1 12.2668 2.48821 2.40831
240 1 12.9602 1.96115 0.807514
241 1 8.88375 3.4855 1.65344
242 1 9.44988 4.02203 12.9435
243 1 8.8309 4.16775 2.31985
244 1 9.59579 3.42143 0.774847
245 1 9.99602 3.54712 1.58535
246 1 10.6248 3.8705 12.9236
247 1 10.0742 3.91164 2.50615
248 1 10.7131 3.41775 0.852964
249 1 11.1799 3.21758 1.70804
250 1 11.8099 3.81984 12.9279
251 1 11.0805 3.78268 2.4715
252 1 11.7083 3.10541 0.790999
253 1 12.2858 3.26367 1.64461
254 1 12.9169 3.75547 12.8441
255 1 12.2609 3.69209 2.50919
256 1 12.7515 3.11504 0.821644
257 1 9.63172 0.625928 3.15569
258 1 9.45815 0.168485 4.05592
259 1 10.6255 0.610818 3.30974
260 1 10.6338 13.3009 4.01772
261 1 11.8955 0.237325 3.09052
262 1 11.7701 13.3026 4.15284
263 1 12.8813 0.325441 3.26692
264 1 12.9639 13.058 3.9615
265 1 9.49742 1.8632 3.29002
266 1 9.51505 1.26422 4.03409
267 1 10.5078 1.63448 3.16437
268 1 10.7692 1.03494 4.12026
269 1 11.9319 1.4446 3.22585
270 1 11.7017 0.885791 4.02969
271 1 13.0131 1.3329 3.26024
272 1 12.7875 0.799117 4.12188
273 1 9.46226 2.91 3.3529
274 1 9.61495 2.30394 4.1807
275 1 10.6618 2.82321 3.34656
276 1 10.6962 2.08355 3.94813
277 1 11.7873 2.58884 3.43176
278 1 11.6639 1.86916 4.03385
279 1 12.7847 2.60171 3.2104
280 1 12.8158 1.91154 3.93828
281 1 9.47122 4.07293 3.26476
282 1 9.51384 3.41087 4.1614
283 1 10.5544 3.87204 3.38548
284 1 10.6658 3.33121 4.19759
285 1 11.6715 3.73589 3.22019
286 1 11.8371 3.17989 4.14603
287 1 12.9614 3.58048 3.16524
288 1 13.0142 3.07048 4.11784
289 1 13.4111 4.22968 1.63411
290 1 0.640937 4.59291 12.8657
291 1 13.365 4.75185 2.35918
292 1 0.468852 4.08535 0.816677
293 1 1.12228 4.06935 1.54014
294 1 1.60444 4.6658 0.158648
295 1 1.12207 4.73413 2.39788
296 1 1.73015 4.04791 0.821916
297 1 2.27555 4.29988 1.53946
298 1 2.69067 4.93116 12.8388
299 1 2.20884 4.78255 2.42297
300 1 2.89661 4.33948 0.630182
301 1 3.33215 4.3199 1.68546
302 1 3.89192 5.12333 0.0516944
303 1 3.2486 4.94753 2.45732
304 1 3.91313 4.4172 0.753709
305 1 0.116649 5.45235 1.51918
306 1 0.590749 5.85694 0.0623783
307 1 13.4126 5.81215 2.35447
308 1 0.504217 5.20162 0.713826
309 1 1.16251 5.18769 1.54495
310 1 1.7556 5.91719 12.896
311 1 1.10367 5.79406 2.51503
312 1 1.69803 5.42321 0.803761
313 1 2.21977 5.37058 1.61752
314 1 3.02711 5.86537 0.0932122
315 1 2.21549 5.96534 2.42318
316 1 2.85762 5.36766 0.88808
317 1 3.41325 5.55371 1.6515
318 1 4.03008 6.31343 0.0155052
319 1 3.38558 6.05187 2.42555
320 1 4.04408 5.55383 0.91774
321 1 0.0566102 6.47189 1.55069
322 1 0.704798 6.93806 12.9191
323 1 0.0254987 6.84474 2.50986
324 1 0.588776 6.53316 0.810312
325 1 1.10281 6.23246 1.55723
326 1 1.71061 7.16465 12.898
327 1 1.15277 6.85765 2.21798
328 1 1.7556 6.48831 0.849475
329 1 2.38725 6.51395 1.59482
330 1 2.81874 7.1912 0.103398
331 1 2.13498 7.10154 2.35131
332 1 2.84252 6.48822 0.692668
333 1 3.46298 6.56801 1.60676
334 1 4.04196 7.31551 12.9184
335 1 3.47338 7.20716 2.46433
336 1 3.98693 6.64491 0.889332
337 1 13.4264 7.56272 1.64173
338 1 0.533334 8.03854 12.9419
339 1 13.4023 8.07747 2.42735
340 1 0.594237 7.56921 0.878826
341 1 1.09905 7.48474 1.53639
342 1 1.77996 8.18559 0.0136329
343 1 1.05881 8.04699 2.42126
344 1 1.73621 7.52012 0.816914
345 1 2.20285 7.6821 1.62447
346 1 2.93029 8.28821 0.00939112
347 1 2.42691 8.1354 2.46909
348 1 2.86123 7.74914 0.855502
349 1 3.32206 7.70999 1.62191
350 1 3.87683 8.45402 0.122667
351 1 2.89125 9.49769 3.25679
352 1 3.89576 7.77835 0.797733
353 1 0.582865 4.59182 3.19677
354 1 0.515613 4.1119 4.0956
355 1 1.60227 4.7564 3.26925
356 1 1.83783 4.15072 3.98805
357 1 2.7554 4.9595 3.20464
358 1 2.87186 4.39746 4.00727
359 1 3.94333 5.10637 3.10463
360 1 3.79514 4.58872 4.01776
361 1 0.584627 5.77463 3.2895
362 1 0.405129 5.18291 4.04907
363 1 1.72171 5.87447 3.19844
364 1 1.58225 5.31067 3.97854
365 1 2.8203 6.11421 3.08482
366 1 2.78829 5.50392 3.998
367 1 3.91725 6.11455 3.30727
368 1 3.82466 5.53325 4.08777
369 1 0.619005 6.91162 3.21496
370 1 0.665709 6.38397 4.06192
371 1 1.56907 7.01208 3.22066
372 1 1.81883 6.44687 4.09274
373 1 2.75097 7.15097 3.1283
374 1 2.89879 6.6509 4.01686
375 1 4.98342 7.46362 3.33362
376 1 3.48234 6.63176 4.80484
377 1 0.508711 8.00073 3.24222
378 1 0.56348 7.35281 4.14527
379 1 1.76578 8.17511 3.03741
380 1 1.64552 7.65338 3.93449
381 1 3.83117 8.41057 3.22313
382 1 2.75846 7.70882 3.99972
383 1 3.96077 7.40791 3.23756
384 1 3.97669 8.00343 4.19671
385 1 4.35671 4.49947 1.63285
386 1 5.07485 5.1724 0.03761
387 1 4.59205 5.1202 2.45522
388 1 5.03036 4.60048 0.931112
389 1 5.6998 5.18897 2.3677
390 1 6.1907 4.89063 0.798673
391 1 6.27199 5.48579 3.41837
392 1 5.6014 4.69521 1.5915
393 1 6.71949 4.85162 1.53278
394 1 6.65092 5.3965 12.112
395 1 6.6994 5.53195 2.43641
396 1 7.27692 4.88019 0.697354
397 1 7.81794 4.92836 1.57376
398 1 8.45105 5.2682 12.9424
399 1 7.80289 5.4807 2.32135
400 1 8.35896 4.68345 0.750944
401 1 4.5068 5.72614 1.72947
402 1 5.1867 6.27237 12.8091
403 1 4.56577 6.30006 2.48154
404 1 5.07627 5.68817 0.818542
405 1 5.69272 5.84531 1.67269
406 1 6.33356 6.37173 0.0725777
407 1 5.64976 6.35922 2.4092
408 1 6.16869 6.0412 0.894929
409 1 6.90495 5.86763 1.45038
410 1 7.3911 6.29629 0.426404
411 1 6.85235 6.4272 2.44543
412 1 7.17997 5.45522 12.9375
413 1 7.92912 5.92127 1.49382
414 1 8.34514 6.55207 0.0681403
415 1 7.79133 6.6136 2.42614
416 1 8.41705 5.85605 0.632791
417 1 4.67664 6.80092 1.5219
418 1 5.08916 7.3791 0.0998158
419 1 4.49009 7.26364 2.42152
420 1 5.12923 6.80947 0.757788
421 1 5.6929 7.06667 1.73822
422 1 6.21885 7.51817 0.0270407
423 1 5.55625 7.52493 2.55347
424 1 6.13684 7.06751 0.863256
425 1 6.75381 6.99211 1.71048
426 1 7.37885 7.46643 12.8711
427 1 6.79192 7.65005 2.34909
428 1 7.27082 7.08863 0.90153
429 1 8.05313 6.96158 1.53909
430 1 8.59733 7.09828 0.824605
431 1 7.93095 7.55928 2.49453
432 1 9.14206 6.92875 1.71491
433 1 4.48139 7.82682 1.61676
434 1 5.20833 8.54573 12.9516
435 1 4.48099 8.39564 2.40345
436 1 4.93566 8.03256 0.808056
437 1 5.66896 8.11168 1.57829
438 1 6.19877 8.68471 12.9288
439 1 5.64476 8.57933 2.44614
440 1 6.20544 8.18482 0.81004
441 1 6.7542 8.21086 1.64452
442 1 7.13047 8.77703 12.907
443 1 6.77868 8.93302 2.33534
444 1 7.28339 8.18815 0.708921
445 1 7.70122 8.00548 1.49432
446 1 8.38116 8.2399 0.884252
447 1 7.87729 9.23737 1.70577
448 1 8.39266 7.59915 0.0854837
449 1 5.23408 5.22469 3.24462
450 1 4.92392 4.62597 3.93829
451 1 6.05048 6.05233 4.058
452 1 6.09166 4.32348 3.16186
453 1 7.38986 5.30276 3.18637
454 1 7.35804 4.76432 4.19067
455 1 8.36862 5.31876 3.23141
456 1 8.42258 3.69405 4.07868
457 1 4.93667 5.61335 4.10214
458 1 4.3968 5.69268 4.87441
459 1 6.1994 6.62782 3.17998
460 1 6.1158 7.12577 4.07313
461 1 7.25053 6.59652 3.4762
462 1 7.7819 5.94354 4.80804
463 1 8.34181 6.34445 3.21372
464 1 7.89604 5.43751 5.58732
465 1 5.04292 8.1078 4.00788
466 1 5.12481 6.24813 3.22647
467 1 6.31162 7.63253 3.13678
468 1 5.0663 6.74569 4.01868
469 1 7.12437 8.29604 4.01024
470 1 7.31949 7.7345 3.24226
471 1 8.39239 7.54991 3.34156
472 1 8.57177 6.97582 3.95032
473 1 4.97041 8.59855 3.22939
474 1 4.61152 7.87854 4.79425
475 1 6.07879 8.14361 4.01015
476 1 6.67066 8.25538 4.85172
477 1 7.22759 8.76621 3.13563
478 1 6.55364 9.3703 5.03006
479 1 7.82479 8.70712 2.30382
480 1 8.29637 8.26527 4.03925
481 1 8.96838 4.64587 1.52875
482 1 9.53905 5.16636 0.00690946
483 1 8.90854 5.17943 2.32157
484 1 9.49625 4.64938 0.790541
485 1 10.0862 4.62063 1.60146
486 1 10.7737 4.93494 0.031782
487 1 9.9416 5.09727 2.38659
488 1 10.5951 4.45178 0.845979
489 1 11.2294 4.33163 1.62989
490 1 11.817 5.02014 12.8931
491 1 11.1398 4.95364 2.45376
492 1 11.7956 4.29274 0.754651
493 1 12.2282 4.26987 1.67655
494 1 12.8683 4.76405 12.874
495 1 12.262 4.86753 2.36702
496 1 12.9305 4.18497 0.756608
497 1 8.9384 5.841 1.6448
498 1 9.52697 6.25053 12.949
499 1 9.51831 6.2423 3.19114
500 1 9.47989 5.77962 0.911229
501 1 10.1643 5.68344 1.6247
502 1 10.6625 6.15495 12.8647
503 1 10.1018 6.24356 2.55482
504 1 10.5575 5.6402 0.655335
505 1 11.1538 5.51548 1.65148
506 1 11.7331 6.07042 0.0856021
507 1 11.4179 6.03728 2.444
508 1 11.597 5.37305 0.905097
509 1 12.3422 5.37093 1.51685
510 1 12.9934 5.85935 0.150667
511 1 12.4386 5.8976 2.49573
512 1 12.916 5.18051 0.810473
513 1 8.87136 6.38928 2.48326
514 1 9.55972 7.46699 12.9454
515 1 8.96268 7.45867 2.43878
516 1 9.59808 6.8631 0.746925
517 1 10.1574 6.70714 1.75537
518 1 10.6937 7.3765 0.113805
519 1 10.076 7.37504 2.51827
520 1 10.7144 6.696 0.768586
521 1 11.1697 6.6143 1.67102
522 1 11.8239 7.19483 12.9211
523 1 11.232 7.16942 2.52454
524 1 11.768 6.47693 0.905351
525 1 12.3546 6.477 1.75134
526 1 12.935 6.96498 0.0972458
527 1 12.4358 7.06536 2.52083
528 1 12.8617 6.38007 0.851334
529 1 8.85374 8.06688 1.73316
530 1 9.62688 8.57093 0.182829
531 1 8.32984 8.80413 3.15175
532 1 9.46791 8.05588 0.875611
533 1 9.96848 7.87771 1.71833
534 1 10.6901 8.36769 0.0472204
535 1 10.1563 8.48586 2.41723
536 1 10.5194 7.7678 0.948807
537 1 11.1657 7.72878 1.71374
538 1 11.7312 8.26635 0.0303041
539 1 11.2497 8.30239 2.52795
540 1 11.7836 7.54838 0.805643
541 1 12.2954 7.55225 1.616
542 1 13.0019 8.19317 0.0918373
543 1 12.2783 8.12462 2.32163
544 1 12.916 7.58594 0.829906
545 1 9.34651 5.09691 3.27719
546 1 9.66164 4.54463 4.07207
547 1 10.507 4.99046 3.0954
548 1 10.6636 4.61565 4.0389
549 1 11.7571 4.84533 3.20224
550 1 11.8348 4.24742 4.08753
551 1 12.8528 4.74767 3.13428
552 1 12.8801 4.11038 3.93357
553 1 9.62277 6.89939 4.08032
554 1 9.62981 5.72544 3.93453
555 1 10.7473 6.04755 3.10892
556 1 10.6638 5.57498 4.00857
557 1 11.9023 5.94042 3.32414
558 1 11.7043 5.32676 4.0313
559 1 12.9389 5.9232 3.33074
560 1 12.812 5.26066 4.05439
561 1 9.56436 8.61211 3.26758
562 1 9.4229 7.38521 3.2873
563 1 10.6616 7.22127 3.32721
564 1 10.5861 6.57278 3.9441
565 1 11.7943 7.18374 3.25425
566 1 11.7281 6.52811 4.06559
567 1 12.9999 6.9742 3.31242
568 1 12.853 6.38663 4.24093
569 1 8.99005 8.55661 2.52678
570 1 8.87305 7.91919 4.98405
571 1 10.5758 8.2732 3.27656
572 1 10.6338 7.84071 4.16426
573 1 11.8325 8.29754 3.28998
574 1 11.721 7.59758 4.0449
575 1 12.8606 8.08602 3.25707
576 1 12.8547 7.49565 4.06647
577 1 0.0598314 8.66666 1.61733
578 1 0.438474 9.22068 12.9483
579 1 0.0126873 9.20854 2.43495
580 1 0.616543 8.66922 0.780541
581 1 1.24139 8.58237 1.64409
582 1 1.60928 9.29442 12.9011
583 1 1.10873 9.21588 2.45293
584 1 1.71528 8.701 0.749097
585 1 2.18468 8.7898 1.67055
586 1 2.85757 9.37041 12.9276
587 1 2.3614 9.30593 2.57288
588 1 2.76435 8.91043 0.882869
589 1 3.32364 9.05004 1.59571
590 1 3.95358 9.5822 12.9463
591 1 3.39641 8.2942 2.2867
592 1 3.93985 8.91276 0.969703
593 1 0.0775901 9.89968 1.79344
594 1 0.619079 10.3247 0.0379088
595 1 0.0319708 10.4171 2.5842
596 1 0.44595 9.80209 0.927942
597 1 1.09355 9.5335 1.43816
598 1 1.63138 10.408 12.9476
599 1 1.16131 10.2605 2.25615
600 1 1.68819 9.87171 0.784575
601 1 2.19706 9.87279 1.69653
602 1 2.64489 10.5527 12.8372
603 1 2.23427 10.5103 2.4837
604 1 2.73942 10.0297 0.740948
605 1 3.19235 10.0687 1.61155
606 1 3.91371 10.667 12.9331
607 1 3.35232 10.6606 2.3726
608 1 3.82462 10.0665 0.831713
609 1 13.3813 10.9438 1.61142
610 1 0.473629 11.3141 12.9394
611 1 13.3225 11.425 2.35895
612 1 0.651415 10.9157 0.894566
613 1 1.12255 10.9869 1.72241
614 1 1.64921 11.5071 12.9383
615 1 1.0347 11.4863 2.51457
616 1 1.75151 10.9563 0.899292
617 1 2.24139 11.0427 1.64751
618 1 2.7299 11.7176 0.0149518
619 1 2.12757 11.637 2.31349
620 1 2.81874 11.0694 0.658678
621 1 3.24647 11.1463 1.62774
622 1 3.73683 11.8259 12.8673
623 1 3.10112 11.7377 2.51413
624 1 3.97372 11.2352 0.752716
625 1 0.00814517 12.0531 1.63972
626 1 0.577426 12.5266 12.8179
627 1 13.343 12.6171 2.55631
628 1 0.425957 11.9685 0.70938
629 1 0.973711 11.9902 1.72017
630 1 1.65753 12.5014 0.0543274
631 1 1.25055 12.6604 2.38076
632 1 1.48556 11.9683 0.811478
633 1 2.08416 12.2065 1.51269
634 1 2.69767 12.7351 12.9091
635 1 2.30598 12.6899 2.45185
636 1 2.7579 12.2399 0.948695
637 1 3.37393 12.1855 1.5559
638 1 3.79003 12.9111 0.0150511
639 1 3.3862 12.7616 2.23359
640 1 3.99236 12.3 0.808706
641 1 0.523466 9.12782 3.24551
642 1 0.668892 8.44341 3.96531
643 1 1.67668 9.16347 3.16849
644 1 1.70882 8.60927 4.07368
645 1 2.85774 8.30893 3.26309
646 1 2.81354 8.89712 3.97417
647 1 3.44864 9.52567 2.42473
648 1 4.00317 9.38529 3.3111
649 1 0.670938 10.2733 3.2243
650 1 0.532383 9.62992 4.00706
651 1 1.66284 10.429 3.18474
652 1 1.69265 9.81855 3.89934
653 1 2.85935 10.4881 3.28577
654 1 2.5786 10.0334 4.13402
655 1 3.91236 10.6177 3.13915
656 1 3.87939 10.0809 4.09354
657 1 0.513915 11.4111 3.30475
658 1 0.502513 10.8125 4.08528
659 1 1.65253 11.4674 3.25932
660 1 1.75701 10.8904 4.17034
661 1 2.73292 11.5563 3.2241
662 1 2.91809 11.0702 4.12603
663 1 3.87097 11.6667 3.2481
664 1 3.8987 11.2221 4.10778
665 1 0.552487 12.5073 3.18798
666 1 0.630135 11.9265 4.18296
667 1 1.70869 12.4623 3.29057
668 1 1.65159 12.0039 4.0999
669 1 2.83254 12.7246 3.27179
670 1 2.76917 12.2138 4.07296
671 1 3.9351 12.6922 3.20812
672 1 3.93568 12.2586 4.10249
673 1 4.54995 9.02338 1.73808
674 1 5.11369 9.69493 0.101968
675 1 4.44134 9.61368 2.47662
676 1 4.98828 9.10381 0.797991
677 1 5.60399 9.28391 1.6348
678 1 6.07079 10.957 0.0468901
679 1 5.53184 9.71514 2.43319
680 1 6.04401 9.29844 0.875028
681 1 6.759 9.29784 1.41266
682 1 7.21086 9.91624 0.129813
683 1 6.71804 9.90502 2.43868
684 1 7.39857 9.33334 0.811811
685 1 8.39013 9.31911 0.826446
686 1 8.31081 9.89621 12.9052
687 1 7.95144 10.2565 1.6436
688 1 8.45361 8.68454 12.9436
689 1 4.35513 10.217 1.59095
690 1 5.01384 10.7468 12.9482
691 1 4.50889 10.6739 2.43658
692 1 5.03891 10.2299 0.927389
693 1 5.6692 10.4263 1.71566
694 1 5.62717 10.9688 12.1176
695 1 5.60932 10.9298 2.48506
696 1 6.2682 9.7966 12.9038
697 1 6.12715 10.4216 0.784124
698 1 7.2231 11.0151 12.9287
699 1 6.69759 11.0454 2.33961
700 1 6.72356 10.4271 1.57794
701 1 7.33927 10.5267 0.885307
702 1 8.3922 11.0762 0.0641421
703 1 7.87271 10.8902 2.43775
704 1 8.39032 10.4037 0.819742
705 1 4.35302 11.239 1.69666
706 1 4.95047 11.8549 12.882
707 1 4.27984 11.8072 2.26115
708 1 5.00277 11.2822 0.785927
709 1 5.59443 11.444 1.53642
710 1 6.00623 12.1831 0.0486857
711 1 5.47167 11.9483 2.54044
712 1 6.17452 11.5019 0.768946
713 1 6.59757 11.6724 1.62474
714 1 7.16509 12.1079 12.8591
715 1 6.58255 12.0891 2.61936
716 1 7.22725 11.6279 0.672263
717 1 7.59822 11.4806 1.63737
718 1 8.39123 12.0718 0.103136
719 1 7.94522 12.0194 2.30888
720 1 8.27364 11.5155 0.894644
721 1 4.61257 12.4532 1.63151
722 1 4.96212 13.1011 0.109194
723 1 4.34911 12.9836 2.42992
724 1 4.9833 12.4251 0.673834
725 1 5.62847 12.5019 1.72692
726 1 6.10667 13.1766 12.9369
727 1 5.52246 13.183 2.43122
728 1 6.03247 12.7564 0.873833
729 1 6.71258 12.6356 1.75786
730 1 7.19807 13.1761 0.0174349
731 1 6.63721 13.2384 2.43762
732 1 7.14919 12.6976 0.780947
733 1 7.76666 12.5814 1.63448
734 1 8.36918 13.0918 12.9136
735 1 7.82314 13.2529 2.50494
736 1 8.2402 12.719 0.942191
737 1 5.06696 9.71089 3.33071
738 1 5.06596 9.11554 4.1251
739 1 6.01954 9.82647 3.2399
740 1 6.22997 9.34578 4.0483
741 1 7.78295 9.90263 2.5495
742 1 7.23239 9.29476 4.133
743 1 8.29607 9.81831 3.26179
744 1 8.83712 9.18969 4.90343
745 1 5.03542 10.8487 3.26709
746 1 4.89347 10.3968 3.97525
747 1 6.17398 10.8397 3.20381
748 1 6.06128 10.4383 4.17484
749 1 7.20112 11.1711 3.18934
750 1 7.20755 10.5134 3.94773
751 1 8.34259 10.9569 3.21621
752 1 8.33274 10.2812 4.08945
753 1 4.892 12.0123 3.18895
754 1 4.99082 11.4873 4.07636
755 1 6.17499 11.9943 3.36304
756 1 6.00101 11.4996 4.04744
757 1 7.50691 12.1214 3.15016
758 1 7.27388 11.568 4.14774
759 1 8.54073 12.1503 3.36436
760 1 8.35815 11.3916 3.94487
761 1 5.1038 13.012 3.23941
762 1 5.04686 12.5921 4.1196
763 1 6.1204 13.1555 3.22778
764 1 6.17668 12.6831 4.10821
765 1 7.30464 13.1903 3.25473
766 1 7.14574 12.6036 3.93523
767 1 8.46833 13.2687 3.172
768 1 8.26586 12.6762 4.04501
769 1 8.98719 9.18784 1.5883
770 1 9.57869 9.75651 12.9508
771 1 8.97179 9.73331 2.40716
772 1 9.51233 9.29445 0.781296
773 1 9.97965 9.06488 1.70452
774 1 10.6767 9.40934 0.110753
775 1 10.1132 9.51239 2.47982
776 1 10.556 8.9598 0.914106
777 1 11.2222 8.74435 1.61103
778 1 11.8212 9.37993 0.0535622
779 1 11.2393 9.34919 2.44496
780 1 11.7773 8.73917 0.807047
781 1 12.3832 8.69889 1.64635
782 1 12.7673 9.38056 0.0220431
783 1 12.3259 9.23414 2.43788
784 1 12.9017 8.78541 0.905072
785 1 8.99547 10.3782 1.7428
786 1 9.38804 10.8839 0.0133268
787 1 9.03613 10.9796 2.47004
788 1 9.48713 10.3633 0.853762
789 1 10.1461 10.1665 1.56722
790 1 10.5533 10.537 12.9168
791 1 10.1611 10.5367 2.40495
792 1 10.627 10.0763 0.758565
793 1 11.3012 9.87635 1.5474
794 1 11.806 10.4727 12.8945
795 1 11.1081 10.4898 2.41288
796 1 11.7619 9.82848 0.831399
797 1 12.4059 9.92476 1.72938
798 1 12.9798 10.4062 0.0679362
799 1 12.2314 10.3522 2.47136
800 1 12.7985 9.82393 0.861675
801 1 8.90081 11.518 1.47882
802 1 9.37219 11.8854 12.9362
803 1 8.89612 11.9315 2.38626
804 1 9.76765 11.4226 0.984353
805 1 10.0809 11.3227 1.72901
806 1 10.5625 11.8442 0.00887234
807 1 9.90141 11.7833 2.42367
808 1 10.7985 11.0783 0.796215
809 1 11.1662 11.0483 1.60865
810 1 11.6536 11.6649 0.126764
811 1 11.2314 11.6631 2.41469
812 1 11.7737 11.0109 0.723095
813 1 12.1554 10.966 1.65717
814 1 12.8311 11.4479 12.7896
815 1 12.3529 11.5424 2.38622
816 1 12.8251 10.8948 0.853305
817 1 8.9048 12.6054 1.57934
818 1 9.45974 13.078 0.0654345
819 1 8.99274 13.0229 2.45613
820 1 9.4768 12.4224 0.672394
821 1 10.0617 12.4618 1.60372
822 1 10.568 12.9435 0.0361221
823 1 10.2433 12.7947 2.49463
824 1 10.6557 12.4297 0.812551
825 1 11.1528 12.1586 1.53717
826 1 11.6807 12.7215 12.8905
827 1 11.2348 12.7729 2.34681
828 1 11.8453 12.2175 0.814349
829 1 12.3628 12.046 1.52271
830 1 12.8187 12.5574 12.8029
831 1 12.1813 12.5629 2.41438
832 1 12.842 12.007 0.642239
833 1 9.45402 9.67915 3.29805
834 1 10.0467 9.0542 4.86524
835 1 10.6847 9.43075 3.30104
836 1 10.5094 8.94494 4.07467
837 1 11.7368 9.35259 3.32714
838 1 11.6035 8.65773 4.10942
839 1 12.8593 9.21442 3.2427
840 1 12.8422 8.6023 4.09957
841 1 9.56354 10.8362 3.24634
842 1 9.37532 10.2068 4.01235
843 1 10.4984 10.718 3.27655
844 1 10.5249 10.049 4.00269
845 1 11.6077 10.4724 3.20602
846 1 11.7591 9.83852 4.05348
847 1 12.7874 10.3486 3.25707
848 1 12.8956 9.64579 4.04435
849 1 9.51754 11.9449 3.35841
850 1 9.5414 11.3278 4.08965
851 1 10.6794 11.7879 3.10883
852 1 10.8042 11.1668 4.04334
853 1 11.7323 11.4732 3.17799
854 1 11.7895 10.9276 4.02267
855 1 12.8004 11.3735 3.29785
856 1 12.8149 10.7305 4.16466
857 1 9.60213 12.9924 3.17233
858 1 9.59571 12.5475 4.099
859 1 10.7343 12.8845 3.32901
860 1 10.6228 12.1498 4.03793
861 1 11.8115 12.6907 3.27033
862 1 11.674 12.0993 4.01494
863 1 12.7676 12.4954 3.24705
864 1 12.9783 11.8603 4.02329
865 1 13.4046 13.1663 4.87153
866 1 13.4145 0.252719 5.62487
867 1 1.21804 13.053 4.83871
868 1 1.06146 0.158542 5.67312
869 1 2.31108 13.2905 4.93769
870 1 2.1672 0.450045 5.71806
871 1 3.31083 13.3356 4.96612
872 1 3.33828 0.506637 5.74246
873 1 0.0146443 0.756586 4.75296
874 1 13.4008 1.37765 5.65839
875 1 1.21039 0.686299 4.80471
876 1 1.14248 1.27659 5.4879
877 1 2.24459 0.978753 4.82606
878 1 2.28001 1.50163 5.62582
879 1 3.36441 1.0509 4.8348
880 1 3.38969 1.57099 5.62056
881 1 13.4297 1.85161 4.76228
882 1 0.0362267 2.41645 5.70677
883 1 1.07073 1.85544 4.87443
884 1 1.18062 2.40538 5.67507
885 1 2.34806 1.98581 4.81417
886 1 2.27354 2.53236 5.57567
887 1 3.44624 2.15602 4.80462
888 1 3.39816 2.70873 5.62557
889 1 0.182882 2.93691 4.98693
890 1 0.138047 3.5756 5.70023
891 1 1.13755 3.10008 4.87013
892 1 1.21746 3.57431 5.67877
893 1 2.31007 3.17744 4.79392
894 1 2.52136 3.65288 5.67721
895 1 3.36505 3.26713 4.72185
896 1 3.55736 3.77009 5.6744
897 1 13.423 13.0307 8.16121
898 1 0.483449 0.217913 6.46912
899 1 0.625 13.0427 7.22014
900 1 0.951907 13.1637 8.08736
901 1 1.6392 0.253481 6.4858
902 1 1.68917 13.0786 7.28286
903 1 2.11177 13.1847 8.06218
904 1 2.78903 0.350236 6.51453
905 1 2.83439 13.3347 7.40089
906 1 3.48105 13.2915 8.12899
907 1 3.84905 0.592414 6.65871
908 1 3.98077 0.0120894 7.35815
909 1 0.0225183 0.818344 7.94718
910 1 0.542968 1.28181 6.37043
911 1 0.506951 0.811914 7.26899
912 1 1.30344 0.739326 8.01762
913 1 1.69686 1.42214 6.50675
914 1 1.70722 0.737687 7.19327
915 1 2.34216 0.838235 8.00053
916 1 2.7671 1.49547 6.4531
917 1 2.91261 1.03095 7.25245
918 1 3.44017 0.918898 8.12614
919 1 3.8998 1.70686 6.44946
920 1 3.99236 1.22768 7.31938
921 1 13.3668 1.9562 8.08789
922 1 0.660621 2.33955 6.47639
923 1 0.477722 1.84364 7.35833
924 1 1.10327 1.89662 8.04466
925 1 1.65477 2.58773 6.47061
926 1 1.643 1.88599 7.2475
927 1 2.23503 2.05598 8.09535
928 1 2.83452 2.65712 6.41058
929 1 2.78542 2.00629 7.2121
930 1 3.35857 2.19764 8.12257
931 1 4.4576 3.07528 5.72718
932 1 3.94889 2.34345 7.32471
933 1 0.0881448 3.08158 8.03556
934 1 0.59645 3.59721 6.52195
935 1 0.649308 2.94486 7.22894
936 1 1.22439 2.9759 8.16402
937 1 1.74275 3.62767 6.38066
938 1 1.80632 3.07291 7.24589
939 1 2.3472 3.18091 8.1222
940 1 2.95741 3.80234 6.529
941 1 2.89305 3.13334 7.33579
942 1 3.47959 3.36685 8.05372
943 1 3.9994 3.51452 7.18153
944 1 3.89994 2.84188 6.50111
945 1 4.34921 0.134539 4.9794
946 1 4.46633 0.728295 5.79097
947 1 5.57187 0.253117 4.91289
948 1 5.55751 0.853987 5.59678
949 1 6.6861 0.410706 4.81879
950 1 6.71589 0.950191 5.55573
951 1 7.76407 0.283129 4.88796
952 1 7.75963 0.810569 5.71771
953 1 4.43679 1.27519 4.88167
954 1 4.4416 1.93075 5.66866
955 1 5.44713 1.45996 4.91045
956 1 5.79577 1.92198 5.68835
957 1 6.56547 1.54916 4.70125
958 1 6.84537 2.00626 5.54144
959 1 7.8754 1.40277 4.88368
960 1 7.79684 2.0171 5.60927
961 1 4.60666 2.41024 4.90289
962 1 4.49582 3.52803 4.81171
963 1 5.65361 2.56209 4.90867
964 1 5.599 3.10871 5.64319
965 1 6.65647 2.60395 4.91302
966 1 6.72982 3.07383 5.77265
967 1 7.79151 2.65419 4.92877
968 1 7.93273 3.13651 5.7194
969 1 5.70306 3.67739 4.76974
970 1 4.05692 4.09512 6.34537
971 1 5.57053 4.68654 4.64608
972 1 5.6147 4.16567 5.66188
973 1 6.78485 3.74294 4.96471
974 1 6.68344 4.3332 5.70574
975 1 7.81217 4.30106 5.60875
976 1 8.50383 4.26673 6.46091
977 1 4.44586 0.0936001 8.25083
978 1 5.12549 0.700259 6.42331
979 1 4.89355 0.313638 7.33503
980 1 5.48246 0.110167 8.01735
981 1 6.16483 0.897923 6.46244
982 1 6.0881 0.330292 7.41779
983 1 6.58096 13.3367 8.77933
984 1 7.19938 0.836815 6.45398
985 1 6.76067 0.391925 7.96751
986 1 7.82123 0.427877 8.06579
987 1 8.44175 1.01582 6.40833
988 1 8.20609 0.414873 7.1637
989 1 4.5612 1.22128 8.11265
990 1 5.07571 1.94631 6.39138
991 1 5.12526 1.38918 7.12229
992 1 5.60962 1.40472 8.09358
993 1 6.23089 1.90497 6.44846