data.lammps (converted from cfg to data.lammps)
    
2298  atoms
1  atom types
0.0   13.4375  xlo xhi
0.0   13.4375  ylo yhi
0.0   12.952  zlo zhi
0.0  0.0 0.0 xy xz yz
    
    
    
Atoms
  
1 1 13.307 13.2181 1.29598
2 1 0.539844 0.370914 12.869
3 1 0.00477913 0.266003 2.47763
4 1 0.541174 13.3657 0.788944
5 1 1.14251 13.3329 1.62783
6 1 2.36355 0.665531 12.2779
7 1 1.07376 0.516402 2.45031
8 1 1.58577 0.13771 0.868767
9 1 2.26632 0.00228032 1.67547
10 1 2.73399 1.35939 0.851696
11 1 2.16207 0.542867 2.39156
12 1 2.69996 0.135502 0.913199
13 1 3.32644 0.0905403 1.56967
14 1 3.94637 0.964776 12.9306
15 1 3.40247 0.649418 2.41335
16 1 3.82278 0.388239 0.768459
17 1 0.0311141 0.76801 1.67239
18 1 0.485709 1.55754 0.112908
19 1 13.2745 1.47216 2.44639
20 1 0.567708 1.06844 0.811843
21 1 1.0829 1.09923 1.59794
22 1 1.62676 1.73051 0.167156
23 1 0.981694 1.55547 2.52805
24 1 1.69389 1.13672 0.91859
25 1 2.21759 1.29391 1.82912
26 1 2.70913 2.00676 12.9291
27 1 2.31728 1.7209 2.60133
28 1 3.53494 1.871 2.49961
29 1 3.71806 1.39061 0.856197
30 1 3.8856 1.9481 12.894
31 1 5.12872 2.02069 3.32076
32 1 5.19233 1.41358 0.777514
33 1 13.4364 1.92495 1.56976
34 1 0.437336 2.70994 0.0453175
35 1 13.3968 2.56296 2.3826
36 1 0.540788 2.32559 0.879196
37 1 1.66086 2.32563 0.854853
38 1 1.58943 2.84086 0.0394826
39 1 1.11437 2.63649 2.42284
40 1 2.28631 2.28615 1.6024
41 1 2.94885 2.41855 0.824371
42 1 2.66087 3.01296 0.0757165
43 1 2.15406 2.79822 2.40726
44 1 3.34305 2.39376 1.64148
45 1 3.22887 1.1935 1.77238
46 1 3.77076 3.21145 12.8393
47 1 2.81029 2.85082 3.19346
48 1 3.9504 2.55522 0.642373
49 1 0.070928 3.16011 1.69902
50 1 0.54076 3.46141 0.579379
51 1 13.414 3.63135 2.59076
52 1 0.987304 3.46846 1.57617
53 1 1.11281 2.20176 1.5838
54 1 1.62125 3.96045 12.9107
55 1 1.1557 3.86706 2.3308
56 1 1.7049 3.35679 0.936643
57 1 2.19283 3.34626 1.66006
58 1 2.84227 4.18092 0.0430008
59 1 2.24171 3.96784 2.45601
60 1 2.88822 3.57546 0.813483
61 1 3.30499 3.55411 1.66678
62 1 3.96068 4.26756 12.9326
63 1 3.28888 4.13102 2.48125
64 1 3.96714 3.63406 0.836611
65 1 0.583953 0.260675 3.20307
66 1 0.574917 13.1039 4.02323
67 1 1.63999 0.414367 3.2293
68 1 1.58608 13.1883 4.11577
69 1 2.8572 0.564227 3.24562
70 1 2.73281 0.0731934 4.07052
71 1 4.04055 0.701987 3.25273
72 1 3.90152 0.349586 4.11897
73 1 0.45985 1.39883 3.28727
74 1 0.498033 0.858467 3.96843
75 1 1.63462 1.58341 3.15784
76 1 1.71531 0.966058 4.06901
77 1 2.94735 1.70881 3.23637
78 1 2.77331 1.20505 3.98568
79 1 3.80339 2.53224 3.91599
80 1 4.5929 2.01319 2.39356
81 1 0.478284 2.55983 3.2373
82 1 0.653361 1.93085 4.17852
83 1 1.61438 2.69793 3.24176
84 1 1.61616 2.11153 3.97231
85 1 2.62363 2.40045 4.04171
86 1 3.33903 2.42336 4.68483
87 1 3.41171 2.92678 2.40212
88 1 4.39617 2.63332 4.85804
89 1 0.569372 3.7604 3.21606
90 1 0.538494 3.12274 3.95602
91 1 1.65464 3.92164 3.25738
92 1 1.77508 3.36924 4.07436
93 1 2.64364 4.01054 3.32487
94 1 2.84551 3.50302 3.98773
95 1 3.86629 4.22913 3.21792
96 1 3.92042 3.23137 3.26231
97 1 4.50734 0.362307 1.64454
98 1 5.06676 0.871563 0.0165883
99 1 4.52281 0.928711 2.30718
100 1 4.99731 0.271291 0.876183
101 1 5.57314 0.237445 1.6681
102 1 6.18787 0.846044 0.0567827
103 1 5.58745 0.841706 2.35473
104 1 6.14694 0.336814 0.846263
105 1 6.77824 0.280711 1.58408
106 1 7.334 0.635861 0.0479417
107 1 6.7238 0.904102 2.39795
108 1 7.9518 0.128208 1.67863
109 1 7.30402 0.136069 0.858865
110 1 7.81051 0.832042 12.1841
111 1 7.82515 0.682866 2.41087
112 1 8.41486 0.120896 0.867287
113 1 4.46747 1.46772 1.41539
114 1 4.88566 1.96792 12.8546
115 1 4.03184 1.8478 3.24879
116 1 5.67185 1.44382 1.55857
117 1 6.30035 1.46469 0.695328
118 1 6.0549 2.51703 0.781042
119 1 5.4963 2.05677 2.34826
120 1 6.15077 1.94078 12.8138
121 1 6.79095 1.34302 1.59209
122 1 7.26312 1.97566 12.9425
123 1 6.57861 1.99395 2.42973
124 1 7.36253 1.37793 0.690272
125 1 7.8961 1.15497 1.61694
126 1 8.96326 1.66264 12.115
127 1 7.78291 1.73966 2.57409
128 1 8.39144 1.25858 0.605594
129 1 4.42228 2.46499 1.50602
130 1 4.93207 3.22835 0.0462842
131 1 4.50378 3.09913 2.31847
132 1 5.07417 2.52703 0.677931
133 1 5.52856 2.64814 1.62054
134 1 6.16633 3.0351 0.0472414
135 1 5.50963 3.12369 2.51427
136 1 6.6222 2.47157 1.64774
137 1 7.77277 2.88381 2.33576
138 1 7.82995 2.97281 12.0745
139 1 6.7119 3.06278 2.40708
140 1 7.22154 2.50163 0.822405
141 1 7.78514 2.27262 1.63738
142 1 8.27808 2.61088 12.9078
143 1 7.88432 3.51718 1.70722
144 1 8.27051 2.32293 0.819985
145 1 4.40774 3.66669 1.5768
146 1 5.08728 4.34291 0.106714
147 1 4.44844 4.21804 2.30561
148 1 5.08742 3.72234 0.846434
149 1 5.60461 3.67663 1.58741
150 1 6.12097 4.17605 12.8622
151 1 5.57373 4.22885 2.44194
152 1 6.21471 3.65839 0.793844
153 1 7.27583 4.03614 0.0576505
154 1 6.82367 4.28607 12.2206
155 1 6.6534 3.63439 1.70552
156 1 7.25684 3.42695 0.937233
157 1 7.73234 4.0474 2.53291
158 1 8.28066 3.81364 12.9126
159 1 8.25853 3.94111 3.20383
160 1 8.33594 3.43644 0.760144
161 1 5.07137 0.952076 3.18543
162 1 5.11898 0.382258 4.01338
163 1 6.04575 0.946738 3.2401
164 1 6.06895 0.263149 4.00589
165 1 7.17916 0.713725 3.23488
166 1 7.23838 0.122358 4.05179
167 1 8.3551 0.485658 3.24976
168 1 8.42555 13.3564 4.08217
169 1 5.03277 1.38834 4.02669
170 1 4.45475 1.5167 4.79293
171 1 6.20675 1.96776 3.3537
172 1 6.35313 1.35205 4.05898
173 1 7.20449 1.87199 3.24537
174 1 7.37052 1.27266 3.96664
175 1 8.45747 1.73473 3.19348
176 1 8.36752 1.13348 3.92636
177 1 4.88323 3.09761 3.21173
178 1 5.05349 2.62311 4.09406
179 1 6.07865 3.05608 3.1346
180 1 6.12426 2.58589 4.06939
181 1 7.30016 2.99187 3.30921
182 1 7.28802 2.47075 4.12037
183 1 8.36199 2.73964 3.33609
184 1 8.32234 2.17366 4.1844
185 1 5.05433 3.69889 4.05495
186 1 4.4313 3.77177 4.81111
187 1 6.70801 4.28518 2.44808
188 1 6.09063 3.67931 3.96229
189 1 6.94059 4.01476 3.342
190 1 7.21399 3.54442 4.18229
191 1 8.3993 5.13408 3.38797
192 1 7.85386 3.44719 4.84292
193 1 9.02596 0.0293712 1.6663
194 1 8.98549 0.437247 12.0201
195 1 8.97716 0.433608 2.46524
196 1 9.47892 13.3479 0.734703
197 1 10.0577 13.0158 1.59631
198 1 10.6845 0.221308 12.8351
199 1 10.128 0.304273 2.36071
200 1 10.7015 13.0697 0.739391
201 1 11.0536 13.0457 1.57636
202 1 11.5721 0.222411 12.5671
203 1 11.276 0.32759 2.19096
204 1 11.7589 13.2058 0.65413
205 1 12.3652 13.0282 1.35085
206 1 12.6764 0.350785 0.0190431
207 1 12.325 0.0444277 2.24342
208 1 12.7876 12.8916 0.202414
209 1 9.03333 1.07756 1.3936
210 1 9.45578 2.57632 0.114489
211 1 8.95458 1.49537 2.34466
212 1 9.49396 0.420926 12.8921
213 1 10.0358 0.887718 1.67769
214 1 10.4468 2.01616 0.82679
215 1 10.0291 1.53749 2.45192
216 1 10.3276 0.715704 0.718345
217 1 11.0249 0.821331 1.3093
218 1 11.661 1.17614 12.9406
219 1 11.0958 1.32479 2.39946
220 1 11.6949 0.669036 0.861088
221 1 12.4243 0.821438 1.5566
222 1 12.768 1.43964 12.9357
223 1 12.214 1.14391 2.37273
224 1 12.8704 0.811249 0.750523
225 1 8.84648 2.16934 1.71012
226 1 9.01588 2.79867 12.1744
227 1 8.89568 2.60638 2.57218
228 1 9.33111 1.8354 0.781408
229 1 9.88291 2.04629 1.53594
230 1 10.0616 2.62108 12.2046
231 1 10.0159 2.52395 2.40933
232 1 10.4851 2.97959 0.694021
233 1 11.0927 1.78279 1.57807
234 1 11.826 2.34143 12.933
235 1 11.142 2.42226 2.33541
236 1 11.665 1.78492 0.806498
237 1 12.2185 1.8116 1.54753
238 1 12.8885 2.4367 0.0663714
239 1 12.2643 2.31922 2.41364
240 1 12.8617 1.959 0.911498
241 1 8.9721 3.17687 1.68631
242 1 9.4181 3.70144 0.00503052
243 1 8.96987 3.72005 2.52947
244 1 9.37569 3.11887 0.752671
245 1 10.0622 3.12641 1.65362
246 1 10.7365 3.50324 12.932
247 1 10.075 3.72217 2.43052
248 1 10.6718 2.43174 12.9193
249 1 11.1362 2.95884 1.4812
250 1 11.7228 3.57167 0.0803723
251 1 11.169 3.61234 2.5437
252 1 11.7625 2.84441 0.789528
253 1 12.2478 2.93396 1.70009
254 1 12.8966 3.6676 0.135846
255 1 12.2795 3.54274 2.40419
256 1 12.841 3.03033 0.945588
257 1 9.65566 0.372783 3.16767
258 1 9.48846 13.1859 3.92794
259 1 10.8464 0.157923 3.12604
260 1 10.6046 13.1221 4.05958
261 1 11.7725 0.104443 3.09052
262 1 11.7161 12.9121 4.02603
263 1 12.8129 0.351557 3.23207
264 1 12.7939 13.0652 3.83627
265 1 9.51339 1.54612 3.28654
266 1 9.50817 0.993511 4.05246
267 1 10.7103 1.37869 3.1993
268 1 10.5471 0.680283 3.85225
269 1 11.7056 1.26955 3.21672
270 1 11.7761 0.672638 4.00349
271 1 12.7379 1.35168 3.15973
272 1 12.8182 0.843405 4.11269
273 1 9.63023 2.78522 3.13484
274 1 9.49202 2.1486 4.01323
275 1 10.5737 2.56503 3.26756
276 1 10.593 1.94035 4.03764
277 1 11.653 2.43363 3.15917
278 1 11.7662 1.91802 3.96983
279 1 12.8701 2.51365 3.26738
280 1 12.9266 1.9056 3.97532
281 1 9.46977 3.97128 3.34945
282 1 9.49428 3.26338 3.99695
283 1 10.5902 3.59633 3.39019
284 1 10.5941 2.97591 4.25761
285 1 11.7628 3.49437 3.25473
286 1 11.7358 2.93058 4.09287
287 1 12.7298 3.57013 3.2712
288 1 12.8495 3.07798 4.14125
289 1 0.0090954 4.20123 1.61698
290 1 0.512397 4.87081 0.0426807
291 1 0.0784663 4.76058 2.42478
292 1 0.569831 4.34537 0.695109
293 1 1.10623 4.54826 1.60129
294 1 1.6016 4.94606 0.0769316
295 1 1.0375 5.00075 2.61699
296 1 1.68885 4.37102 0.916824
297 1 2.1772 4.55672 1.77593
298 1 2.81837 5.1774 12.7648
299 1 2.34711 5.16875 2.40739
300 1 2.62162 4.56763 0.790081
301 1 3.38782 4.59974 1.71554
302 1 3.81055 5.29687 0.124909
303 1 3.36869 5.31143 2.33111
304 1 3.84538 4.69598 0.855674
305 1 13.4173 5.43312 1.55511
306 1 0.582569 6.02548 0.0365055
307 1 0.0730116 5.94406 2.48944
308 1 0.625622 5.48586 0.9129
309 1 1.17384 5.59503 1.65236
310 1 1.68106 6.31413 0.101327
311 1 1.20283 6.09968 2.51642
312 1 1.73731 5.53462 0.621069
313 1 2.10567 5.73807 1.50888
314 1 2.76036 6.25857 0.00248085
315 1 2.22931 6.21135 2.47383
316 1 2.79366 5.56002 0.761566
317 1 3.34537 5.73486 1.49704
318 1 3.92101 6.4926 0.0348327
319 1 3.39115 6.34136 2.32812
320 1 3.97849 5.90515 0.796185
321 1 13.3366 6.47525 1.59426
322 1 0.43298 7.10055 12.8666
323 1 0.0634974 7.01022 2.39683
324 1 0.592752 6.57584 0.788747
325 1 1.00918 6.58462 1.63867
326 1 1.71168 7.19717 12.8978
327 1 1.23012 7.25268 2.29389
328 1 1.68635 6.75893 0.914989
329 1 2.35858 6.69589 1.5165
330 1 2.68164 7.48828 12.8844
331 1 2.28308 7.22505 2.39353
332 1 2.99238 6.74874 0.674023
333 1 3.35776 7.02433 1.64477
334 1 3.8266 7.57489 0.0861176
335 1 3.4509 7.52145 2.54042
336 1 3.92155 7.10923 0.882264
337 1 13.4313 7.6067 1.61979
338 1 0.58752 8.22421 0.101126
339 1 13.3918 8.21727 2.44294
340 1 0.540279 7.61713 0.766773
341 1 1.02533 7.77306 1.52093
342 1 1.62924 8.37264 12.7833
343 1 1.12065 8.43269 2.35057
344 1 1.6684 7.84038 0.74471
345 1 2.20184 7.90474 1.6325
346 1 2.86997 8.50337 0.00242518
347 1 2.21943 8.39056 2.43815
348 1 2.76416 7.79735 0.783833
349 1 3.24771 7.95863 1.52946
350 1 3.90342 8.65229 12.9187
351 1 2.88178 9.77847 3.07549
352 1 3.89227 8.17394 0.888446
353 1 0.305116 4.79446 3.43346
354 1 0.683609 4.3559 4.05677
355 1 1.59162 5.08771 3.26585
356 1 1.67465 4.44312 4.19944
357 1 2.61648 5.03199 3.25107
358 1 2.75216 4.65651 4.17565
359 1 3.84122 5.38898 3.14612
360 1 3.6795 4.87916 3.95457
361 1 0.59331 6.00897 3.28468
362 1 0.566645 5.48907 4.05083
363 1 1.72771 6.32453 3.41038
364 1 1.67536 5.5327 4.0051
365 1 2.92503 6.30795 3.09472
366 1 2.71185 5.79882 3.86749
367 1 3.97329 6.46861 3.21488
368 1 3.82099 5.82536 4.07732
369 1 0.619221 7.09837 3.16465
370 1 0.594034 6.60054 4.01113
371 1 1.62123 7.49838 3.32176
372 1 1.73551 6.84841 4.04382
373 1 2.69183 7.51002 3.25183
374 1 2.86401 6.88112 3.96184
375 1 5.17091 7.60976 3.12827
376 1 3.48514 7.03286 4.76039
377 1 0.602578 8.26371 3.21344
378 1 0.527207 7.63778 3.94159
379 1 1.74339 8.41835 3.20638
380 1 1.68138 7.97732 4.19901
381 1 3.86931 8.82727 3.29868
382 1 2.88187 8.02685 4.09888
383 1 3.95322 7.53117 3.19841
384 1 3.95569 8.1006 3.87306
385 1 4.48099 5.04022 1.61306
386 1 4.9394 5.55905 0.144043
387 1 4.48407 5.36236 2.52477
388 1 5.02368 4.86517 0.851215
389 1 5.49833 5.36825 2.55662
390 1 6.15025 4.82869 0.759736
391 1 6.16613 5.35088 3.29465
392 1 5.60598 4.81076 1.69707
393 1 6.64118 4.8157 1.72537
394 1 6.77331 5.36805 12.1171
395 1 6.76612 5.3352 2.48611
396 1 7.14061 4.66476 0.818385
397 1 7.76903 4.52989 1.5494
398 1 8.43946 4.91404 12.9426
399 1 7.91437 5.01708 2.53151
400 1 8.31784 4.52515 0.842081
401 1 4.40341 6.0413 1.70075
402 1 4.92861 6.60712 12.8186
403 1 4.55121 6.52252 2.47322
404 1 5.13443 6.05529 0.859543
405 1 5.67687 5.89378 1.56154
406 1 6.01324 6.53583 0.085971
407 1 6.14954 6.47451 3.32512
408 1 6.19716 5.82383 0.633285
409 1 6.70475 5.83061 1.50734
410 1 7.26508 5.71353 0.76286
411 1 6.80897 6.4426 2.52422
412 1 7.36184 5.16946 0.0375542
413 1 7.84432 5.62713 1.65041
414 1 8.38653 6.06158 0.0313652
415 1 7.96033 6.24984 2.31371
416 1 8.42272 5.55639 0.85567
417 1 4.51114 7.10841 1.61138
418 1 4.92428 7.69437 0.0811142
419 1 4.43896 7.70156 2.29397
420 1 5.12418 7.10508 0.81386
421 1 5.62947 6.30001 2.41959
422 1 6.09893 7.66742 12.8821
423 1 5.52163 6.93667 1.74136
424 1 6.1322 7.16653 0.847048
425 1 6.63998 6.8644 1.70377
426 1 7.32535 7.49565 0.169915
427 1 6.72191 7.54185 2.47313
428 1 7.18685 6.80439 0.779695
429 1 7.71859 6.80781 1.59126
430 1 8.38669 6.62411 0.922008
431 1 7.85103 7.36988 2.44171
432 1 9.02426 6.60649 1.51322
433 1 4.46902 8.34998 1.61698
434 1 5.11509 8.83869 0.0461151
435 1 4.30556 8.74576 2.48867
436 1 5.01332 8.22259 0.824239
437 1 5.72419 7.52453 2.39064
438 1 6.16914 8.84054 0.0357631
439 1 5.49879 8.24478 1.70586
440 1 6.0587 8.1126 0.839686
441 1 6.71905 8.01533 1.63567
442 1 7.15142 8.62459 0.0676079
443 1 6.61336 8.68006 2.41952
444 1 7.16754 8.08266 0.820121
445 1 7.77804 7.943 1.60835
446 1 8.34579 7.7781 0.864505
447 1 7.8425 8.97941 1.70737
448 1 8.30733 7.23926 0.0827028
449 1 4.89469 5.29335 3.4245
450 1 4.84801 4.25068 3.27683
451 1 6.21682 5.88849 4.07422
452 1 5.90651 4.30257 3.29652
453 1 7.25888 5.24866 3.41632
454 1 7.24882 4.61007 4.02346
455 1 8.48566 5.60381 4.2416
456 1 8.43933 3.33489 3.98721
457 1 5.03011 5.93994 3.96116
458 1 4.50473 5.49443 5.85129
459 1 6.25927 6.94992 4.14254
460 1 6.24825 7.70939 3.28266
461 1 7.39773 6.28652 3.19741
462 1 8.40071 6.1305 6.58512
463 1 8.40259 6.0685 3.20405
464 1 7.83922 6.22041 5.78076
465 1 4.94163 8.16127 4.05177
466 1 5.09344 6.54551 3.22146
467 1 6.2018 8.72239 3.35579
468 1 5.05777 7.13172 3.92313
469 1 5.99161 8.0458 4.07564
470 1 7.33888 7.51593 3.21267
471 1 8.45705 7.24792 3.27692
472 1 8.3931 6.68173 4.00315
473 1 5.05665 8.74464 3.21593
474 1 4.61496 8.1608 4.91567
475 1 5.62858 8.15506 4.97115
476 1 6.72146 8.12438 4.83287
477 1 7.28138 8.52331 3.23294
478 1 6.81383 9.2067 4.8585
479 1 7.79327 8.45568 2.50617
480 1 8.31308 7.81929 4.11024
481 1 8.9913 4.23785 1.65467
482 1 9.56389 4.73808 12.9316
483 1 8.89218 4.91107 2.28625
484 1 9.4037 4.26426 0.909273
485 1 10.0905 4.26553 1.58803
486 1 10.5437 4.68433 12.8215
487 1 10.1393 4.75087 2.51106
488 1 10.5416 4.04724 0.786806
489 1 11.1755 4.00859 1.66459
490 1 11.8665 4.67466 0.0835431
491 1 11.3172 4.63639 2.56868
492 1 11.5426 4.07222 0.818188
493 1 12.1938 4.09787 1.60649
494 1 12.8884 4.72492 12.9393
495 1 12.4946 4.62606 2.38587
496 1 12.8393 4.13351 0.955757
497 1 9.11053 5.45718 1.66766
498 1 9.49167 5.926 0.0467628
499 1 9.43794 5.882 3.22368
500 1 9.52779 5.41014 0.817384
501 1 10.1984 5.25807 1.55937
502 1 10.715 5.83939 12.8573
503 1 10.0073 5.82647 2.43609
504 1 10.6159 5.12029 0.698069
505 1 11.2101 4.98581 1.62888
506 1 11.742 5.78654 12.8526
507 1 11.2241 5.66252 2.2875
508 1 11.7668 5.28086 0.799958
509 1 12.3059 5.20417 1.63656
510 1 12.8725 5.86669 0.0597383
511 1 12.3033 5.70978 2.37559
512 1 12.9313 5.23908 0.816016
513 1 9.00622 6.09903 2.35584
514 1 9.39017 7.05645 0.000623097
515 1 8.93676 7.09296 2.483
516 1 9.48884 6.55667 0.755152
517 1 10.0579 6.46469 1.71122
518 1 10.6495 6.92266 0.0313175
519 1 10.1742 6.9336 2.43841
520 1 10.601 6.20063 0.911145
521 1 11.1694 6.34507 1.64813
522 1 11.7136 6.84267 0.114219
523 1 11.2019 6.87714 2.3937
524 1 11.7544 6.23984 0.868236
525 1 12.2772 6.31424 1.61116
526 1 12.7918 7.08819 12.927
527 1 12.2948 6.86365 2.41287
528 1 12.9262 6.52716 0.731943
529 1 8.8086 7.65581 1.71653
530 1 10.1557 8.07841 12.123
531 1 8.43562 8.37273 3.31819
532 1 9.4784 7.6949 0.847603
533 1 9.90721 7.60718 1.6517
534 1 10.5881 7.97268 0.0851841
535 1 10.0316 8.06262 2.56902
536 1 10.5037 7.36821 0.891564
537 1 11.1178 7.50455 1.55581
538 1 11.752 7.98216 0.0316222
539 1 11.1149 7.98468 2.49819
540 1 11.7159 7.34647 0.828695
541 1 12.3072 7.45676 1.69999
542 1 12.9989 8.18098 12.8926
543 1 12.42 7.97811 2.41252
544 1 12.8081 7.66773 0.813742
545 1 9.34753 4.8475 3.15385
546 1 9.51503 4.33498 4.26173
547 1 10.6546 4.74823 3.28518
548 1 10.6194 4.14085 4.04477
549 1 11.8885 4.66101 3.27705
550 1 11.814 3.99737 4.04663
551 1 12.8678 4.73852 3.28336
552 1 12.9052 4.13883 4.10163
553 1 9.45925 6.48912 3.99256
554 1 9.58803 5.41656 4.14239
555 1 10.6479 5.88462 3.0551
556 1 10.6199 5.27075 4.03861
557 1 11.6516 5.74914 3.23896
558 1 11.7557 5.12216 4.0911
559 1 12.8032 5.83818 3.1992
560 1 12.8501 5.28321 4.22884
561 1 9.6367 8.26171 3.42536
562 1 9.49691 7.0944 3.29312
563 1 10.6269 6.84055 3.28619
564 1 10.555 6.2972 4.06001
565 1 11.6937 6.7922 3.23014
566 1 11.7934 6.16281 4.20912
567 1 12.9002 6.86938 3.19636
568 1 12.8967 6.26893 3.99933
569 1 9.03736 8.23606 2.59413
570 1 8.92699 7.81599 4.79072
571 1 10.6907 8.03622 3.31852
572 1 10.6891 7.39514 4.09652
573 1 11.8348 7.9547 3.17356
574 1 11.8296 7.15279 3.96099
575 1 13.0267 7.95044 3.26342
576 1 12.8488 7.37309 4.03421
577 1 13.4337 8.65439 1.56222
578 1 0.579563 9.21972 12.7995
579 1 13.4225 9.29436 2.36908
580 1 0.562353 8.90863 0.777992
581 1 1.1697 8.94542 1.47523
582 1 1.76276 9.47255 12.9443
583 1 1.06934 9.41654 2.28254
584 1 1.79283 8.85183 0.735334
585 1 2.2188 8.96993 1.57382
586 1 2.92709 9.62266 0.13393
587 1 2.26689 9.59878 2.44584
588 1 2.81798 8.96503 0.755235
589 1 3.29837 9.07786 1.62875
590 1 3.94499 9.7477 12.9515
591 1 3.24936 8.52505 2.43025
592 1 4.02769 9.18921 0.85885
593 1 0.0755689 9.81466 1.59312
594 1 0.594042 10.4629 0.033522
595 1 0.075019 10.3401 2.53039
596 1 0.645293 9.88675 0.670959
597 1 1.14096 10.0622 1.62272
598 1 1.70475 10.66 0.0060834
599 1 1.30392 10.5537 2.39401
600 1 1.73074 10.1803 0.733344
601 1 2.22635 10.0267 1.63537
602 1 2.87959 10.8074 0.00265508
603 1 2.28161 10.7905 2.48414
604 1 2.80291 10.127 0.860783
605 1 3.36941 10.2341 1.70023
606 1 4.00476 10.8641 0.161703
607 1 3.49684 10.8459 2.49134
608 1 4.00174 10.2211 0.894158
609 1 0.0645695 10.8756 1.64018
610 1 0.676338 11.6595 0.0935149
611 1 0.0888842 11.476 2.2412
612 1 0.606799 11.1544 0.785227
613 1 1.22606 11.106 1.51787
614 1 2.38254 11.9973 12.1437
615 1 1.22235 11.6106 2.44334
616 1 1.86495 11.2998 0.788645
617 1 2.36403 11.1903 1.71604
618 1 2.83189 12.3719 0.817103
619 1 2.25696 11.8723 2.30442
620 1 2.85728 11.2711 0.878478
621 1 3.43723 11.3343 1.58009
622 1 3.90807 12.1416 0.155858
623 1 3.38442 12.0174 2.38119
624 1 3.93634 11.5224 0.759759
625 1 0.101276 12.1507 1.63777
626 1 0.295441 12.7195 12.9346
627 1 13.3149 12.7613 2.27732
628 1 0.644716 12.3119 0.829648
629 1 1.2189 12.1005 1.61412
630 1 1.64757 0.68686 0.0153393
631 1 1.10718 12.7877 2.36133
632 1 1.67914 12.3899 0.635119
633 1 2.10678 12.4097 1.44015
634 1 1.63 12.9394 12.9454
635 1 2.38657 12.8582 2.45277
636 1 2.72684 13.1171 0.0473283
637 1 3.40852 12.4414 1.53122
638 1 3.9089 13.2655 12.921
639 1 3.48753 13.0693 2.3972
640 1 4.03985 12.8143 0.890019
641 1 0.587391 9.37358 3.30565
642 1 0.590608 8.68921 4.09632
643 1 1.69896 9.49284 3.16622
644 1 1.57063 9.01058 4.08023
645 1 2.71929 8.63932 3.39603
646 1 2.7017 9.21091 4.07961
647 1 3.54317 9.6748 2.33452
648 1 3.92837 9.87749 3.43962
649 1 0.663338 10.4389 3.20647
650 1 0.496868 9.95618 4.07786
651 1 1.73209 10.4978 3.2818
652 1 1.75889 10.0779 4.11071
653 1 2.82815 10.8603 3.26741
654 1 2.82413 10.0912 3.90933
655 1 4.02246 10.8491 3.17649
656 1 3.87363 10.4255 4.09489
657 1 0.618061 11.5382 3.1471
658 1 0.512997 11.0608 4.02455
659 1 1.7529 11.7431 3.23869
660 1 1.65543 11.1376 4.07838
661 1 2.87919 11.8476 3.29709
662 1 2.94859 11.179 4.18455
663 1 3.91985 11.9923 3.15864
664 1 3.91463 11.5794 3.95377
665 1 0.544195 12.5861 3.12433
666 1 0.70896 11.9991 4.06907
667 1 1.64578 12.8349 3.09229
668 1 1.68745 12.239 4.01529
669 1 2.80137 12.9976 3.35558
670 1 2.82401 12.3534 3.99135
671 1 3.85745 13.0376 3.29773
672 1 3.98607 12.7191 4.12748
673 1 4.53653 9.36106 1.66295
674 1 5.00414 9.86487 0.0289456
675 1 4.5551 9.82816 2.44161
676 1 5.21563 9.27146 0.80635
677 1 5.55669 9.25541 1.68504
678 1 6.09162 10.9623 12.7988
679 1 5.56103 9.80223 2.51766
680 1 6.29421 9.28228 0.947584
681 1 6.81772 9.14636 1.61105
682 1 7.26408 9.60737 12.8311
683 1 6.82288 9.71663 2.4346
684 1 7.57637 9.15849 0.857789
685 1 8.45481 8.84566 0.729791
686 1 8.51838 9.50897 0.0326761
687 1 7.93217 10.235 1.5129
688 1 8.23494 8.3719 12.8876
689 1 4.55871 10.5705 1.48951
690 1 5.0151 10.9338 0.0641417
691 1 4.5971 10.8943 2.43272
692 1 5.19964 10.3532 0.863756
693 1 5.783 10.3442 1.59313
694 1 5.54172 10.976 12.066
695 1 5.4712 10.8626 2.5187
696 1 6.15716 9.93648 0.0748206
697 1 6.30907 10.4265 0.800764
698 1 7.29684 10.7713 0.0677695
699 1 6.75351 10.9806 2.52495
700 1 6.69648 10.3296 1.76088
701 1 7.31245 10.118 0.792138
702 1 8.44615 10.7008 0.000231561
703 1 7.8933 10.7232 2.52924
704 1 8.48218 10.0598 0.722766
705 1 4.55784 11.6004 1.63231
706 1 5.08797 11.9712 12.8753
707 1 4.45227 12.0803 2.45938
708 1 5.14031 11.509 0.814266
709 1 5.71888 11.4086 1.75103
710 1 6.27148 12.0283 0.0326006
711 1 5.68042 12.0107 2.43145
712 1 6.19095 11.4753 0.848511
713 1 6.89692 11.4097 1.67665
714 1 7.34869 11.9561 0.156333
715 1 6.73368 12.0634 2.49312
716 1 7.22882 11.4025 0.858088
717 1 7.96301 11.3148 1.41884
718 1 8.35744 11.9097 12.918
719 1 7.75531 11.7765 2.38538
720 1 8.52978 11.274 0.756759
721 1 4.53809 12.6164 1.66429
722 1 4.92561 13.2114 12.8514
723 1 4.52771 13.2013 2.47414
724 1 5.02743 12.6181 0.697827
725 1 5.53888 12.5649 1.59606
726 1 6.07535 13.2798 0.0532515
727 1 5.57758 13.171 2.45025
728 1 6.11398 12.6434 0.779375
729 1 6.69193 12.5327 1.50989
730 1 7.14679 12.9669 12.9236
731 1 6.72125 13.0972 2.30016
732 1 7.3921 12.678 0.933988
733 1 7.97943 12.3583 1.65041
734 1 8.46861 12.9308 12.9465
735 1 7.86807 12.9395 2.40135
736 1 8.47781 12.4182 0.851563
737 1 5.03936 9.7871 3.43223
738 1 5.05086 9.16311 4.21239
739 1 6.21631 9.85913 3.18466
740 1 6.2407 9.23151 4.10641
741 1 7.86917 9.71713 2.33316
742 1 7.35449 9.05313 4.06264
743 1 8.41622 9.432 3.16733
744 1 9.10306 8.84088 4.96932
745 1 5.10144 11.0202 3.33419
746 1 5.06277 10.405 3.97288
747 1 6.20597 10.8109 3.17114
748 1 6.28317 10.3065 4.18465
749 1 7.4254 10.8117 3.27862
750 1 7.33795 10.1814 3.96391
751 1 8.44171 10.6514 3.34809
752 1 8.40708 10.0325 3.97562
753 1 5.06477 12.0695 3.18382
754 1 4.97788 11.5912 4.07445
755 1 6.13863 12.0468 3.28205
756 1 6.19787 11.3461 3.99244
757 1 7.24683 11.8532 3.29298
758 1 7.26098 11.4134 4.11545
759 1 8.40891 11.8998 3.07126
760 1 8.40154 11.3088 3.97349
761 1 4.9778 13.1961 3.20451
762 1 5.06521 12.7069 4.00057
763 1 6.24708 13.3061 3.12335
764 1 6.17363 12.6719 3.89257
765 1 7.20865 13.0621 3.20647
766 1 7.39617 12.4698 4.01674
767 1 8.28492 12.8269 3.20083
768 1 8.40678 12.2567 4.13006
769 1 8.92919 8.82124 1.67705
770 1 9.51882 8.83154 0.95674
771 1 9.13063 9.31467 2.45504
772 1 9.62711 9.24667 0.0312414
773 1 10.026 8.6217 1.64296
774 1 10.156 9.217 12.1308
775 1 10.083 9.18585 2.42619
776 1 10.6079 8.57217 0.878797
777 1 11.1396 8.48007 1.66245
778 1 11.743 9.12439 0.148883
779 1 11.2244 9.01664 2.44878
780 1 11.6777 8.48151 0.764713
781 1 12.2442 8.63288 1.61796
782 1 12.8056 9.219 0.0254755
783 1 12.3726 9.21314 2.39187
784 1 12.9471 8.73467 0.83093
785 1 8.91266 9.85865 1.51571
786 1 9.53598 10.3726 12.9095
787 1 8.98709 10.4197 2.41482
788 1 9.59974 9.92027 0.791458
789 1 10.1167 9.70009 1.64427
790 1 10.7309 9.81906 0.841026
791 1 10.0441 10.4769 2.35318
792 1 10.7003 9.18207 0.0829086
793 1 11.1596 9.54071 1.60381
794 1 11.6965 10.2745 12.9174
795 1 11.2894 10.2081 2.2584
796 1 11.812 9.82115 0.88586
797 1 12.4374 9.67337 1.47694
798 1 12.8686 10.4749 0.0694076
799 1 12.2375 10.2753 2.31014
800 1 12.9663 9.92394 0.754868
801 1 8.98076 10.9924 1.63554
802 1 9.48692 11.5416 12.9243
803 1 8.96515 11.6393 2.30665
804 1 9.50327 10.9887 0.746974
805 1 10.1996 10.756 1.53668
806 1 10.5788 11.5035 0.0689462
807 1 10.2426 11.6097 2.44938
808 1 10.7453 10.8719 0.68463
809 1 11.1963 10.8416 1.64069
810 1 11.8755 11.222 12.911
811 1 11.2311 11.3868 2.41915
812 1 11.7899 10.878 0.8661
813 1 12.4653 10.7702 1.57336
814 1 12.8672 11.6448 12.8763
815 1 12.4329 11.4287 2.29955
816 1 12.9972 11.1645 0.740042
817 1 9.05614 12.2886 1.58943
818 1 9.57106 12.8033 12.9333
819 1 8.96269 12.8297 2.35011
820 1 9.63547 12.1643 0.768248
821 1 10.1231 11.8554 1.58912
822 1 10.6146 12.5636 12.9454
823 1 10.0793 12.6125 2.44119
824 1 10.7651 12.0184 0.892779
825 1 11.3554 11.9479 1.64623
826 1 13.3464 12.6031 12.0973
827 1 11.3166 12.5728 2.30502
828 1 11.7971 11.9587 0.675308
829 1 12.3801 11.9652 1.58141
830 1 11.7565 12.4911 0.0241945
831 1 12.3242 12.5677 2.42344
832 1 12.9007 12.0962 0.791831
833 1 9.46156 9.47465 3.24568
834 1 10.1413 8.79499 4.87342
835 1 10.6623 9.25723 3.19948
836 1 10.6547 8.58397 4.07643
837 1 11.8705 9.13958 3.16893
838 1 11.6836 8.49065 3.90525
839 1 12.9749 9.06737 3.29547
840 1 12.8002 8.48311 4.01281
841 1 9.57589 10.5008 3.24033
842 1 9.48682 10.0533 4.08866
843 1 10.5957 10.2329 3.06922
844 1 10.6335 9.63899 4.05429
845 1 11.6328 10.1944 3.35545
846 1 11.7004 9.5945 3.99578
847 1 12.8003 10.2642 3.13172
848 1 12.8189 9.68219 3.94283
849 1 9.43885 11.5386 3.06216
850 1 9.56899 11.1838 4.14929
851 1 10.6916 11.3075 3.28895
852 1 10.6226 10.7419 4.00646
853 1 11.9121 11.2113 3.10796
854 1 11.8665 10.8044 4.07776
855 1 12.9992 11.4707 3.15982
856 1 12.9689 10.7861 3.90096
857 1 9.3466 12.6497 3.25309
858 1 9.61139 12.0968 4.00322
859 1 10.6138 12.5853 3.16292
860 1 10.6435 11.9502 3.91934
861 1 11.8312 12.4023 3.08363
862 1 11.8139 11.8701 3.8773
863 1 13.0006 12.4253 3.24151
864 1 12.8063 11.8346 4.12091
865 1 13.2933 13.2401 4.74977
866 1 13.3999 0.307227 5.69964
867 1 0.934116 13.4293 4.89249
868 1 1.28444 0.632572 5.66733
869 1 2.10541 13.39 4.80316
870 1 2.25246 0.534064 5.6941
871 1 3.26041 0.250177 4.85631
872 1 3.29142 0.780279 5.74675
873 1 13.3814 0.8236 4.80548
874 1 13.4269 1.43719 5.56709
875 1 0.942647 0.994266 4.76812
876 1 0.981388 1.58818 5.73559
877 1 2.146 1.1411 4.89746
878 1 2.17317 1.73794 5.67114
879 1 3.21453 1.38581 4.89452
880 1 3.32727 1.91851 5.59282
881 1 13.3824 2.07237 4.76595
882 1 0.0522739 2.5601 5.55814
883 1 1.14789 2.13345 4.96687
884 1 1.07098 2.78964 5.70853
885 1 2.19538 2.26687 4.81738
886 1 2.26328 2.86184 5.53715
887 1 3.28003 2.98052 5.6575
888 1 3.80117 3.15995 6.41807
889 1 13.4024 3.21996 4.8182
890 1 0.00339126 3.72586 5.67637
891 1 1.06327 3.1485 4.67817
892 1 1.11525 3.74771 5.53642
893 1 2.08205 3.5504 4.99452
894 1 2.24725 4.13192 5.75935
895 1 3.18559 3.57528 4.85687
896 1 3.40154 4.15337 5.61974
897 1 13.3431 13.1173 8.04491
898 1 0.448482 0.416489 6.28717
899 1 0.495266 13.3471 7.11909
900 1 0.978977 13.2693 8.08718
901 1 1.7436 0.518206 6.52853
902 1 1.58091 13.3592 7.31959
903 1 2.12734 0.148742 8.07557
904 1 2.88332 0.642892 6.59644
905 1 2.71704 0.112558 7.37575
906 1 3.45301 0.396538 8.08591
907 1 3.92804 0.984329 6.58546
908 1 4.0168 0.385534 7.32709
909 1 13.4262 0.814755 8.04902
910 1 0.406529 1.59472 6.55181
911 1 0.561029 0.95146 7.24815
912 1 1.10878 1.03925 8.09551
913 1 1.60042 1.68317 6.50339
914 1 1.63068 1.13196 7.26511
915 1 2.21476 1.26781 8.06406
916 1 2.66818 1.83583 6.35158
917 1 2.71588 1.30323 7.18047
918 1 3.24161 0.970542 8.88967
919 1 3.84007 2.59326 7.33114
920 1 3.88621 1.51535 7.22355
921 1 13.4224 1.91295 8.08443
922 1 0.464147 2.66314 6.57396
923 1 0.605603 2.08605 7.35744
924 1 1.07547 2.16024 8.21175
925 1 1.63993 2.74852 6.4881
926 1 1.62523 2.26203 7.42637
927 1 2.31167 2.32423 8.11124
928 1 2.64075 3.05235 6.45367
929 1 2.79947 2.42907 7.20732
930 1 3.43745 2.00811 8.94663
931 1 3.4637 3.70957 7.95723
932 1 3.37746 2.47 8.25189
933 1 0.0674173 3.0438 7.97834
934 1 0.575621 3.8259 6.41175
935 1 0.537941 3.31091 7.2698
936 1 1.27469 3.23197 8.20509
937 1 1.6446 3.89377 6.51287
938 1 1.68272 3.29615 7.30326
939 1 2.32181 3.31557 8.19631
940 1 2.87859 4.06922 6.4444
941 1 2.75262 3.53237 7.3479
942 1 3.36819 4.12867 8.83188
943 1 4.4389 4.27943 5.7557
944 1 3.74803 2.14211 6.42022
945 1 4.52287 0.237091 4.91418
946 1 4.34119 1.03496 5.57826
947 1 5.59699 0.280695 4.90391
948 1 5.49836 0.910645 5.56972
949 1 6.72724 0.348092 4.79567
950 1 6.61387 0.762292 5.72653
951 1 7.90516 0.189505 4.75649
952 1 7.75064 0.721068 5.71375
953 1 3.92782 1.33753 4.09547
954 1 3.8275 3.72297 4.20053
955 1 5.65979 1.46967 4.68886
956 1 5.58786 2.04747 5.69274
957 1 6.72447 1.34222 4.96094
958 1 6.74626 3.03063 5.49581
959 1 7.71128 1.2569 4.91113
960 1 7.88897 1.88653 5.77575
961 1 4.48338 2.12634 5.71849
962 1 5.0898 3.78817 7.27878
963 1 5.54513 2.53855 4.93185
964 1 4.96489 3.16712 6.44481
965 1 6.66511 2.43201 4.79161
966 1 6.7933 4.20762 5.7285
967 1 7.69426 2.29488 4.95809
968 1 7.7436 2.99467 5.70012
969 1 5.48212 3.66781 5.07193
970 1 3.87141 4.44757 6.59441
971 1 4.88867 4.72417 4.17887
972 1 5.47348 4.72663 4.75772
973 1 6.46293 3.68781 4.83743
974 1 6.75808 4.67574 4.90688
975 1 7.79641 3.98734 5.74671
976 1 8.38714 3.90006 6.51126
977 1 4.56815 0.391335 8.15534
978 1 4.94865 0.968903 6.43235
979 1 5.05874 0.399259 7.33621
980 1 5.62099 0.492935 8.20871
981 1 6.07175 0.822349 6.39738
982 1 6.03728 0.256386 7.17714
983 1 6.80338 13.1722 8.93744
984 1 7.24653 0.797014 6.561
985 1 6.6016 0.300856 7.94527
986 1 7.71163 0.076642 8.12156
987 1 8.44034 0.483073 6.39256
988 1 8.36354 13.4044 7.25571
989 1 4.42475 1.54877 8.13747
990 1 4.96134 2.00737 6.44142
991 1 4.97388 1.47382 7.39278