data.lammps (converted from cfg to data.lammps)
    
2298  atoms
1  atom types
0.0   13.4375  xlo xhi
0.0   13.4375  ylo yhi
0.0   12.952  zlo zhi
0.0  0.0 0.0 xy xz yz
    
    
    
Atoms
  
1 1 13.435 13.0239 1.74781
2 1 0.542899 0.197358 12.9002
3 1 13.4028 0.293642 2.3806
4 1 0.59184 12.9872 0.939633
5 1 1.11541 13.2688 1.76297
6 1 1.76703 0.398188 12.8859
7 1 1.08392 0.363128 2.50428
8 1 1.56305 13.2583 0.773927
9 1 2.17049 13.2273 1.64461
10 1 2.8296 0.669628 0.0232424
11 1 2.32932 0.385725 2.41408
12 1 2.70083 13.4148 0.809984
13 1 3.3377 0.110037 1.45288
14 1 3.99771 0.610308 12.8816
15 1 3.41151 0.520742 2.25663
16 1 4.00507 0.0108173 0.930666
17 1 0.000575726 0.757067 1.51796
18 1 0.591946 1.45137 0.0323694
19 1 0.0889239 1.2961 2.556
20 1 0.649426 0.750221 0.745688
21 1 1.14321 0.896441 1.54359
22 1 1.58103 1.39118 0.0204823
23 1 1.15154 1.42325 2.31846
24 1 1.72492 0.876418 0.810631
25 1 2.24109 1.06538 1.73397
26 1 2.84187 1.7236 12.7977
27 1 2.13811 1.71161 2.30522
28 1 2.77566 1.14533 0.859921
29 1 3.25221 1.18998 1.64181
30 1 3.95534 1.66702 0.00726182
31 1 3.33911 1.67197 2.54548
32 1 3.89997 1.09915 0.695392
33 1 0.0574096 1.81531 1.75101
34 1 0.421487 2.55584 12.8711
35 1 0.0439507 2.48106 2.42041
36 1 0.471551 2.06909 0.832285
37 1 1.12357 2.02045 1.41036
38 1 1.63268 2.51404 0.072299
39 1 1.26216 2.47742 2.39331
40 1 1.78106 2.01587 0.790573
41 1 2.3263 2.17305 1.51808
42 1 2.67428 2.78213 12.8749
43 1 2.3788 2.77728 2.36792
44 1 2.93431 2.13178 0.725251
45 1 3.3898 2.24967 1.67118
46 1 3.85781 2.87769 12.892
47 1 3.40428 2.87798 2.46524
48 1 3.91108 2.32165 0.816352
49 1 0.174757 3.08418 1.78507
50 1 0.52627 3.68335 12.8948
51 1 13.3789 3.63123 2.37019
52 1 0.537003 3.15807 0.825895
53 1 1.2137 3.05719 1.67923
54 1 1.67751 3.88173 0.0563951
55 1 1.12957 3.70535 2.45146
56 1 1.62074 3.18333 0.731608
57 1 2.20861 3.2253 1.44626
58 1 2.77965 3.85918 12.9285
59 1 2.42211 3.79791 2.45161
60 1 2.8514 3.31272 0.839543
61 1 3.41177 3.34098 1.62969
62 1 3.89249 4.02618 0.0809623
63 1 3.48248 4.1144 2.41634
64 1 3.91086 3.48535 0.810545
65 1 0.502982 13.3789 3.29869
66 1 0.580122 13.1129 4.11187
67 1 1.73623 0.283695 3.11953
68 1 1.72966 13.2596 4.11877
69 1 2.90429 0.454067 3.17211
70 1 2.79829 13.3808 4.04605
71 1 3.97527 0.66213 3.18523
72 1 4.11257 0.0256788 3.97964
73 1 0.746719 1.25421 3.22051
74 1 0.608017 0.656242 3.94128
75 1 1.78149 1.45414 3.29184
76 1 1.84074 0.867289 3.99078
77 1 2.78731 1.54682 3.11277
78 1 2.90796 1.16483 4.05152
79 1 4.00917 1.73821 3.27205
80 1 3.915 1.23585 4.02683
81 1 0.717958 2.48093 3.19822
82 1 0.577514 1.84737 3.89139
83 1 1.82532 2.47114 3.24106
84 1 1.67052 1.98239 4.10012
85 1 2.75742 2.65332 3.31859
86 1 2.84096 2.11053 4.13829
87 1 3.98214 2.76232 3.14858
88 1 3.87234 2.38568 4.09035
89 1 0.549537 3.44517 3.22983
90 1 0.542383 2.8701 4.09848
91 1 1.74782 3.71711 3.17466
92 1 1.71438 3.18173 3.88779
93 1 2.96778 3.7808 3.23845
94 1 2.91243 3.31463 3.99656
95 1 3.97402 4.00333 3.41228
96 1 4.01999 3.3291 4.08575
97 1 4.63524 0.202255 1.59931
98 1 5.14654 0.947724 12.8452
99 1 4.39469 0.760213 2.32429
100 1 5.12731 0.313517 0.708793
101 1 5.63542 0.425056 1.64148
102 1 6.2189 0.915891 0.0326932
103 1 5.53484 0.971555 2.40762
104 1 6.24176 0.314032 0.832902
105 1 6.74725 0.50294 1.66554
106 1 7.2692 0.932537 0.0714447
107 1 6.68817 1.03037 2.44463
108 1 7.26394 0.254928 0.865355
109 1 7.89858 0.294847 1.47435
110 1 8.34141 0.783386 12.9143
111 1 7.80658 0.863349 2.49637
112 1 8.51098 0.189705 0.67675
113 1 4.33432 1.26013 1.52392
114 1 5.00171 1.91617 12.799
115 1 4.488 1.81968 2.35289
116 1 5.04016 1.44303 0.848688
117 1 5.48945 1.49115 1.55367
118 1 6.09522 2.04454 0.0597971
119 1 5.46062 2.14964 2.38415
120 1 6.18224 1.46595 0.831302
121 1 6.7969 1.5534 1.58128
122 1 7.21935 2.10403 0.00913036
123 1 6.55507 2.01522 2.4687
124 1 7.30338 1.49636 0.778534
125 1 7.94799 1.35524 1.62212
126 1 8.3537 1.93499 12.9478
127 1 7.65512 1.93034 2.47533
128 1 8.36435 1.33236 0.726239
129 1 4.36674 2.4815 1.74756
130 1 5.22126 3.02833 0.00074133
131 1 4.41091 3.19635 2.45563
132 1 4.91391 2.48723 0.760246
133 1 5.45313 2.60804 1.52502
134 1 6.24622 3.08497 0.0845469
135 1 5.56489 3.24936 2.38363
136 1 6.09389 2.62524 0.930376
137 1 6.72494 2.56623 1.60313
138 1 7.14703 3.129 12.8631
139 1 6.57471 3.08991 2.40903
140 1 7.32416 2.64183 0.834965
141 1 7.87867 2.39153 1.76117
142 1 8.32976 3.00347 12.9013
143 1 7.76771 3.13173 2.40567
144 1 8.30732 2.42645 0.871495
145 1 4.58856 3.5211 1.59363
146 1 4.89744 4.26082 12.924
147 1 4.47079 4.17461 2.51751
148 1 4.94706 3.63104 0.620659
149 1 5.65993 3.75874 1.52936
150 1 6.12809 4.33151 12.9113
151 1 5.67419 4.29402 2.47304
152 1 6.12961 3.73927 0.823351
153 1 7.24354 3.61942 0.863351
154 1 7.24601 4.22185 0.0421993
155 1 6.78732 3.72724 1.68165
156 1 7.88475 3.67684 1.61451
157 1 7.82318 4.19019 2.45253
158 1 8.36179 4.0837 0.028941
159 1 8.41626 4.18217 3.17907
160 1 8.35186 3.54481 0.768775
161 1 4.97996 0.906304 3.19023
162 1 5.08979 0.118044 4.01535
163 1 6.03928 0.92834 3.12944
164 1 6.1644 0.441649 4.1495
165 1 7.21445 0.839368 3.2201
166 1 7.45343 0.14987 4.15009
167 1 8.28431 0.820557 3.23839
168 1 8.42369 0.23733 3.93405
169 1 5.10149 2.15919 3.28631
170 1 5.0358 1.28441 4.06708
171 1 6.01235 1.9848 3.42118
172 1 6.22715 1.40118 4.04891
173 1 7.2041 2.12467 3.36989
174 1 7.27712 1.32572 4.01244
175 1 8.29756 1.85276 3.16617
176 1 8.40149 1.31404 4.15232
177 1 5.07341 3.05944 3.23448
178 1 4.76792 2.37197 4.31305
179 1 6.13266 3.10189 3.28693
180 1 6.21019 2.74398 4.12384
181 1 7.14171 3.15834 3.22909
182 1 7.2199 2.4748 4.1466
183 1 8.36476 2.99233 3.15822
184 1 8.30294 2.32954 4.01287
185 1 5.07882 3.46999 4.04136
186 1 4.44785 3.47096 4.95398
187 1 6.78649 4.29625 2.37805
188 1 6.16562 3.80637 3.99688
189 1 7.31372 4.28518 3.2871
190 1 7.26133 3.69607 4.04189
191 1 8.42355 4.64213 4.00585
192 1 7.87829 3.51459 4.70455
193 1 9.00415 0.120799 1.6255
194 1 9.47462 0.5248 12.8653
195 1 8.86344 0.696374 2.36471
196 1 9.5324 0.0421897 0.777962
197 1 10.0988 13.3576 1.5972
198 1 10.5974 0.418386 0.123108
199 1 10.0722 0.511856 2.42029
200 1 10.6334 13.2398 0.775283
201 1 11.0933 13.267 1.67978
202 1 11.706 0.298951 0.0141635
203 1 11.1633 0.325674 2.55768
204 1 11.7487 13.114 0.853091
205 1 12.2463 13.1934 1.53784
206 1 12.8265 0.0657625 0.164007
207 1 12.3023 0.21 2.52405
208 1 13.0113 13.053 0.924628
209 1 8.92507 1.40279 1.6888
210 1 9.59579 1.6054 12.8933
211 1 8.94342 1.8218 2.52295
212 1 9.44838 1.15096 0.742363
213 1 10.0654 1.12722 1.63823
214 1 10.5993 1.46341 12.8697
215 1 10.0669 1.63154 2.4567
216 1 10.6025 1.05527 0.872908
217 1 11.2405 0.825326 1.4772
218 1 11.6613 1.46365 0.0695924
219 1 11.1244 1.32541 2.38617
220 1 11.8074 0.881753 0.81703
221 1 12.3917 0.810382 1.6856
222 1 12.8319 1.4018 0.0669472
223 1 12.287 1.38479 2.42974
224 1 12.9344 0.858644 0.817261
225 1 8.87473 2.37132 1.60013
226 1 9.4562 2.78694 0.0455267
227 1 8.95628 2.90939 2.53239
228 1 9.40419 2.26337 0.660079
229 1 9.99347 2.19889 1.4876
230 1 10.6125 2.52112 12.854
231 1 10.0169 2.63396 2.35125
232 1 10.5303 2.06349 0.706375
233 1 11.1419 1.99222 1.67124
234 1 11.8298 2.47466 0.126376
235 1 11.1626 2.59915 2.28508
236 1 11.6913 1.97588 0.90801
237 1 12.3432 1.95997 1.61334
238 1 12.8265 2.42587 0.0250906
239 1 12.1956 2.57978 2.45773
240 1 12.8896 1.86861 0.908354
241 1 8.90668 3.40705 1.62044
242 1 9.43331 4.038 12.8966
243 1 8.99192 3.91815 2.41357
244 1 9.47024 3.45578 0.763502
245 1 10.1124 3.26465 1.60763
246 1 10.576 3.71653 12.9359
247 1 10.2101 3.84928 2.27749
248 1 10.516 3.15535 0.701495
249 1 11.1906 3.17872 1.63813
250 1 11.7621 3.53152 12.9414
251 1 11.2119 3.82076 2.4691
252 1 11.609 2.98952 0.786824
253 1 12.3617 3.09191 1.65089
254 1 12.8581 3.47018 0.0134931
255 1 12.3034 3.61238 2.44737
256 1 12.8995 3.01273 0.910506
257 1 9.39764 0.691585 3.12323
258 1 9.62896 0.0651113 3.97803
259 1 10.4682 0.458779 3.30867
260 1 10.6339 13.2635 4.11637
261 1 11.7696 0.272285 3.33732
262 1 11.6722 13.072 4.0489
263 1 12.9477 0.282941 3.30576
264 1 12.9008 13.1186 4.03571
265 1 9.43432 1.72167 3.37809
266 1 9.45364 1.0293 4.06931
267 1 10.5627 1.6555 3.24958
268 1 10.6347 1.07901 3.92922
269 1 11.6851 1.45371 3.19446
270 1 11.6554 0.914705 3.96834
271 1 12.833 1.37534 3.14462
272 1 12.9452 0.883655 4.06421
273 1 9.70923 2.86611 3.28498
274 1 9.50667 2.33814 3.99643
275 1 10.739 2.76905 3.17757
276 1 10.6559 2.19768 4.03612
277 1 11.7743 2.58407 3.20281
278 1 11.8254 2.04218 4.02561
279 1 12.9665 2.41288 3.17442
280 1 12.9579 1.94231 3.98441
281 1 9.61714 4.04248 3.1137
282 1 9.38948 3.47566 3.99534
283 1 10.5929 3.76309 3.18868
284 1 10.6916 3.26722 4.10919
285 1 11.8363 3.78147 3.17626
286 1 11.8649 3.23031 3.99457
287 1 12.954 3.44325 3.29452
288 1 12.863 3.04953 4.13306
289 1 13.3929 4.21338 1.61348
290 1 0.603225 4.62542 0.0952972
291 1 0.133708 4.66277 2.5499
292 1 0.561103 4.14322 0.86786
293 1 1.17813 4.19787 1.63717
294 1 1.82007 4.95173 12.7898
295 1 1.10114 4.8088 2.44144
296 1 1.59594 4.42216 0.779111
297 1 2.22228 4.23029 1.6619
298 1 2.89305 4.99969 0.0577355
299 1 2.30684 4.91802 2.39681
300 1 2.67909 4.41626 0.798475
301 1 3.27472 4.57433 1.49732
302 1 3.91992 5.09395 0.109259
303 1 3.45674 5.14981 2.39376
304 1 4.00072 4.5562 0.951599
305 1 0.249889 5.19834 1.67577
306 1 0.427283 5.76172 12.8473
307 1 13.3287 5.77804 2.4776
308 1 0.738872 5.33498 0.634612
309 1 1.19213 5.36308 1.60223
310 1 1.54015 5.95854 12.9415
311 1 1.19047 5.81384 2.51805
312 1 1.8807 5.50424 0.779727
313 1 2.27466 5.54586 1.60756
314 1 2.76689 6.21228 0.00749769
315 1 2.2624 5.9992 2.52665
316 1 2.90621 5.5843 0.772416
317 1 3.42002 5.59576 1.65617
318 1 4.05658 6.19199 12.7813
319 1 3.3777 6.26016 2.32455
320 1 3.92902 5.78315 0.771371
321 1 0.0136529 6.2527 1.74829
322 1 0.533682 6.76653 0.0617496
323 1 0.112001 6.95388 2.41522
324 1 0.494899 6.41337 0.888352
325 1 1.15969 6.38046 1.60597
326 1 1.58053 7.10634 0.00927484
327 1 1.10308 6.87901 2.54706
328 1 1.69976 6.57439 0.751507
329 1 2.36187 6.61118 1.69798
330 1 2.67498 7.34013 12.8579
331 1 2.18533 7.07951 2.46679
332 1 2.824 6.69889 0.722535
333 1 3.40907 6.81889 1.51803
334 1 3.87867 7.38387 12.9263
335 1 3.39875 7.30518 2.47234
336 1 3.9824 6.78547 0.732094
337 1 13.3969 7.41519 1.55885
338 1 0.478547 7.93761 12.9265
339 1 13.4318 8.11303 2.26356
340 1 0.661708 7.49274 0.88046
341 1 1.21926 7.35305 1.64721
342 1 1.77321 8.1725 12.8334
343 1 1.06763 7.93994 2.41101
344 1 1.67133 7.72886 0.864519
345 1 2.32369 7.69283 1.59021
346 1 2.81428 8.35181 0.0109674
347 1 2.26568 8.19259 2.35182
348 1 2.75008 7.78805 0.742968
349 1 3.35843 7.859 1.55245
350 1 3.83371 8.51817 12.916
351 1 2.83701 9.59353 3.3164
352 1 3.89482 7.96493 0.772506
353 1 0.679485 4.58904 3.48749
354 1 0.583798 4.01385 4.01684
355 1 1.77411 4.83448 3.25049
356 1 1.84603 4.22419 3.9602
357 1 2.88804 4.84468 3.21463
358 1 2.87184 4.47345 4.12888
359 1 3.9892 5.13321 3.3661
360 1 4.00721 4.51379 4.2188
361 1 0.504515 5.82345 3.194
362 1 0.681287 5.31155 4.02213
363 1 1.68466 5.97261 3.3716
364 1 1.72323 5.3213 4.0489
365 1 2.8778 6.05565 3.28048
366 1 2.90804 5.42903 4.02727
367 1 3.99177 6.1865 3.12733
368 1 4.04587 5.62753 4.18119
369 1 0.395554 6.90237 3.41754
370 1 0.655578 6.35778 4.04561
371 1 1.60291 7.02719 3.31639
372 1 1.77446 6.50625 4.22872
373 1 2.76911 7.25022 3.13701
374 1 2.85668 6.73303 3.92328
375 1 5.04063 7.50728 3.19995
376 1 3.51675 6.7592 4.72918
377 1 0.511742 7.99967 3.17479
378 1 0.706129 7.51679 4.09797
379 1 1.65844 8.16128 3.14456
380 1 1.66696 7.68163 3.94967
381 1 3.95396 8.43483 3.1847
382 1 2.76069 7.81744 3.87565
383 1 3.86926 7.29744 3.30429
384 1 3.97688 7.86349 4.06979
385 1 4.57589 4.70319 1.65414
386 1 5.01294 5.30437 0.0451752
387 1 4.50257 5.26815 2.48684
388 1 5.16094 4.66675 0.841478
389 1 5.54861 5.51015 2.42315
390 1 6.13187 4.97433 0.730371
391 1 6.26572 5.45606 3.13072
392 1 5.65828 4.89684 1.72531
393 1 6.62215 4.82545 1.5985
394 1 6.70026 5.38838 11.9757
395 1 6.71629 5.45272 2.39657
396 1 7.24276 4.82645 0.861462
397 1 7.88164 4.7961 1.63378
398 1 8.39563 5.25171 0.00792837
399 1 7.78238 5.22734 2.35211
400 1 8.40456 4.76421 0.765089
401 1 4.51036 5.70649 1.52818
402 1 5.09964 6.49352 12.9352
403 1 4.58694 6.36477 2.44731
404 1 5.07181 5.86493 0.672118
405 1 5.65648 6.05913 1.52591
406 1 6.18118 6.60465 12.9121
407 1 5.68609 6.44371 2.6577
408 1 6.12476 5.98536 0.811195
409 1 6.77993 5.98715 1.60767
410 1 7.31966 5.94945 0.733587
411 1 6.6509 6.61175 2.38045
412 1 7.32111 5.22901 0.0232245
413 1 7.82894 5.94425 1.67401
414 1 8.36783 6.23401 12.9236
415 1 8.01141 6.4451 2.42139
416 1 8.30356 5.93838 0.841602
417 1 4.53393 6.84455 1.64143
418 1 5.05066 7.53853 0.0772373
419 1 4.4926 7.423 2.38354
420 1 5.06177 7.0086 0.848879
421 1 5.63797 7.03937 1.61127
422 1 6.24406 7.74724 12.9038
423 1 5.66478 7.53343 2.4546
424 1 6.11374 7.10631 0.849106
425 1 6.7903 7.23741 1.64722
426 1 7.32815 7.65994 0.0353819
427 1 6.75092 7.79028 2.449
428 1 7.11369 7.04325 0.766418
429 1 7.71349 6.98754 1.59786
430 1 8.37094 6.96643 0.896658
431 1 7.90489 7.50142 2.58784
432 1 8.93622 6.82384 1.59189
433 1 4.42788 7.95426 1.61318
434 1 5.08978 8.58799 12.9327
435 1 4.50804 8.63556 2.35418
436 1 5.05869 8.03014 0.839309
437 1 5.56467 8.11984 1.71051
438 1 6.12527 8.91864 0.127415
439 1 5.61122 8.64051 2.43864
440 1 6.1066 8.20749 0.885571
441 1 6.79018 8.35538 1.62871
442 1 7.14156 8.77543 0.0818993
443 1 6.64412 8.77754 2.55733
444 1 7.36125 8.18567 0.881276
445 1 7.90927 8.08555 1.72184
446 1 8.38364 8.05647 0.68954
447 1 7.87544 9.14531 1.64532
448 1 8.31999 7.3385 0.00550069
449 1 5.05875 5.16658 3.25498
450 1 4.99117 4.15418 3.31576
451 1 6.17802 6.03903 4.04095
452 1 6.16711 4.35736 3.14386
453 1 7.36354 5.55154 3.1968
454 1 7.281 4.86966 3.92058
455 1 8.40689 5.23682 3.09592
456 1 8.45277 3.47685 3.88895
457 1 5.21644 5.82623 3.94887
458 1 4.29098 5.19689 5.62373
459 1 6.25225 6.59099 3.37494
460 1 6.11206 7.54291 3.395
461 1 7.32716 6.55685 3.05755
462 1 7.75764 5.70156 4.72207
463 1 8.47401 6.30044 3.34472
464 1 7.87025 5.22043 5.51286
465 1 5.03097 8.08925 4.13397
466 1 4.96948 6.48999 3.40455
467 1 6.21951 8.07939 3.9877
468 1 5.3685 7.03104 4.12769
469 1 7.34306 8.22473 4.09961
470 1 7.24903 7.67459 3.28099
471 1 8.52388 7.47567 3.35436
472 1 8.29146 6.92893 3.95393
473 1 5.07311 8.52061 3.30148
474 1 4.57242 7.91723 4.87222
475 1 5.70352 8.22519 4.88793
476 1 6.70652 8.1483 4.92566
477 1 7.46331 8.69366 3.26134
478 1 6.69581 9.17551 4.85954
479 1 7.84426 8.68814 2.44769
480 1 8.48913 8.01708 4.13059
481 1 9.04337 4.52791 1.67823
482 1 9.39997 5.25667 0.000999556
483 1 9.03177 5.26084 2.30525
484 1 9.48747 4.52656 0.746219
485 1 10.0986 4.42426 1.51838
486 1 10.5268 4.82961 0.0283135
487 1 10.0646 4.87814 2.39018
488 1 10.7442 4.27059 0.866519
489 1 11.389 4.2619 1.46365
490 1 11.8404 4.65299 12.821
491 1 11.2093 4.85654 2.36346
492 1 11.9068 4.14293 0.689228
493 1 12.3043 4.16669 1.6638
494 1 12.9242 4.69915 0.0117729
495 1 12.5362 4.77613 2.37441
496 1 12.9375 4.00239 0.769296
497 1 8.93549 5.63645 1.50822
498 1 9.53311 6.19271 0.153249
499 1 9.4717 6.29214 3.33552
500 1 9.63246 5.64868 0.972173
501 1 10.3645 5.45956 1.58187
502 1 10.6851 6.0605 12.9106
503 1 10.0017 6.00174 2.4155
504 1 10.6242 5.44231 0.675149
505 1 11.3672 5.34661 1.44766
506 1 11.7569 5.92134 12.9002
507 1 11.298 5.95332 2.3865
508 1 11.8292 5.31941 0.689838
509 1 12.3885 5.30422 1.50413
510 1 12.7722 5.80918 0.0221194
511 1 12.3019 5.69151 2.46856
512 1 13.0751 5.23752 0.869248
513 1 9.02214 6.29806 2.39789
514 1 9.51426 7.25043 12.9125
515 1 9.02828 7.38049 2.40868
516 1 9.48571 6.7573 0.805454
517 1 10.09 6.61779 1.65144
518 1 10.5895 7.3098 12.9239
519 1 10.1199 7.30891 2.35147
520 1 10.636 6.70062 0.716147
521 1 11.1921 6.47372 1.51011
522 1 11.7217 7.02698 0.0567853
523 1 11.1745 6.99868 2.3586
524 1 11.7885 6.40644 0.763111
525 1 12.331 6.35318 1.60423
526 1 12.7962 6.96593 12.8969
527 1 12.4051 6.72406 2.5386
528 1 12.9192 6.35592 0.809325
529 1 8.85701 7.98744 1.66151
530 1 9.4432 8.3622 12.9162
531 1 8.46635 8.60714 3.20175
532 1 9.43831 7.8665 0.740072
533 1 9.98821 7.65784 1.48026
534 1 10.6309 8.38378 12.9319
535 1 10.0927 8.28918 2.38946
536 1 10.7166 7.76154 0.84354
537 1 11.322 7.67318 1.62408
538 1 11.6083 8.12626 12.8178
539 1 11.1475 8.09495 2.49453
540 1 11.935 7.57112 0.776366
541 1 12.3072 7.39623 1.69815
542 1 12.8645 8.24004 12.9171
543 1 12.3285 7.93373 2.48344
544 1 12.9988 7.53774 0.672312
545 1 9.37968 5.02459 3.21712
546 1 9.57029 4.48079 4.0965
547 1 10.7328 4.93846 3.13506
548 1 10.6886 4.38331 3.88863
549 1 11.8754 4.8292 3.19175
550 1 11.6807 4.18472 4.08746
551 1 12.9665 4.5543 3.29254
552 1 12.8669 4.09506 4.08961
553 1 9.57545 6.83724 4.14167
554 1 9.54718 5.60161 3.843
555 1 10.6555 5.94909 3.06811
556 1 10.6681 5.59993 3.92864
557 1 11.7129 5.84355 3.31047
558 1 11.7916 5.29452 4.13222
559 1 12.8855 5.78448 3.3307
560 1 13.0325 5.24966 4.06028
561 1 9.49585 8.48921 3.32421
562 1 9.57923 7.36059 3.26524
563 1 10.5523 7.03518 3.24505
564 1 10.5507 6.56867 4.1491
565 1 11.6203 7.05543 3.19241
566 1 11.8934 6.52223 3.959
567 1 12.7912 7.0002 3.20118
568 1 12.8292 6.455 4.06768
569 1 9.06537 8.56294 2.42113
570 1 8.9354 7.94272 4.9896
571 1 10.5692 8.26698 3.20957
572 1 10.7415 7.67467 4.08226
573 1 11.7528 8.17621 3.24698
574 1 11.801 7.65029 3.93676
575 1 12.8869 8.08753 3.17315
576 1 12.9044 7.66271 4.1013
577 1 0.0722643 8.71742 1.57329
578 1 0.42472 9.12344 0.10701
579 1 13.4242 9.2463 2.5056
580 1 0.629371 8.55426 0.742845
581 1 1.10386 8.55079 1.68561
582 1 1.58756 9.22802 0.0512474
583 1 1.1909 9.22007 2.52429
584 1 1.63843 8.67688 0.872315
585 1 2.2609 8.8429 1.61259
586 1 2.79798 9.4781 12.8551
587 1 2.29643 9.36101 2.38186
588 1 2.7097 8.92254 0.790143
589 1 3.37152 8.95377 1.55927
590 1 3.8861 9.61704 0.0481992
591 1 3.47216 8.41166 2.43761
592 1 3.94401 8.93803 0.755539
593 1 0.0366775 9.88019 1.673
594 1 0.613649 10.3688 12.9361
595 1 0.0423649 10.3651 2.5368
596 1 0.506958 9.76668 0.734008
597 1 1.1152 9.63402 1.56776
598 1 1.64022 10.4916 12.9487
599 1 1.05964 10.2335 2.32701
600 1 1.6076 9.89656 0.707332
601 1 2.22721 9.93629 1.5195
602 1 2.62933 10.6542 0.0959781
603 1 2.29597 10.3981 2.4135
604 1 2.80555 9.99604 0.757765
605 1 3.3356 10.0232 1.55118
606 1 3.90585 10.7135 12.8722
607 1 3.37033 10.4578 2.41735
608 1 3.975 10.1859 0.887502
609 1 13.4284 10.9003 1.55677
610 1 0.515458 11.4299 12.8751
611 1 13.3563 11.3518 2.54967
612 1 0.580781 10.756 0.786387
613 1 1.18745 10.8116 1.66411
614 1 1.65481 11.6412 12.9277
615 1 1.09115 11.4894 2.31837
616 1 1.74167 11.0238 0.831459
617 1 2.2177 11.0311 1.70657
618 1 2.68113 11.7547 0.0216502
619 1 2.19492 11.564 2.36869
620 1 2.80845 11.226 0.814286
621 1 3.34901 11.1575 1.70523
622 1 3.76151 11.9785 0.0358681
623 1 3.29986 11.6955 2.52938
624 1 3.74221 11.2461 0.726213
625 1 13.4181 11.8357 1.55477
626 1 0.583906 12.5349 0.0156373
627 1 13.4352 12.4856 2.46317
628 1 0.631648 12.0032 0.831907
629 1 1.09364 12.0255 1.56344
630 1 1.6772 12.7488 12.9516
631 1 1.18024 12.5176 2.38568
632 1 1.76226 12.138 0.821907
633 1 2.2648 12.1632 1.62653
634 1 2.86438 12.9219 12.8511
635 1 2.32641 12.6346 2.51863
636 1 2.80377 12.3267 0.70233
637 1 3.33325 12.2207 1.53552
638 1 3.9538 13.1018 0.0179204
639 1 3.36823 12.909 2.1939
640 1 3.99939 12.4396 0.790317
641 1 0.534604 9.02429 3.15708
642 1 0.495305 8.61239 4.04193
643 1 1.7945 9.30094 3.22323
644 1 1.608 8.72049 3.99942
645 1 2.75758 8.457 3.095
646 1 2.76009 8.85519 4.04746
647 1 3.34064 9.4657 2.40951
648 1 3.83509 9.61722 3.30518
649 1 0.586228 10.2912 3.36981
650 1 0.636365 9.70407 4.02544
651 1 1.56172 10.4108 3.22184
652 1 1.58507 9.79367 3.99722
653 1 2.81169 10.6611 3.20544
654 1 2.62377 9.95191 4.16586
655 1 3.87645 10.7168 3.2805
656 1 3.87118 10.1889 4.04589
657 1 0.44475 11.4216 3.32614
658 1 0.40599 10.8943 4.1122
659 1 1.52414 11.4143 3.17893
660 1 1.61941 10.9366 4.08836
661 1 2.60243 11.5949 3.25099
662 1 2.74089 11.0215 4.04358
663 1 3.82544 11.8104 3.17613
664 1 3.83446 11.43 4.02285
665 1 0.556111 12.3912 3.11095
666 1 0.715601 12.0541 4.1158
667 1 1.71222 12.7393 3.27354
668 1 1.63189 12.0479 3.92687
669 1 2.87284 12.7233 3.24775
670 1 2.73094 12.046 4.17277
671 1 3.84351 12.9827 3.11033
672 1 3.85543 12.4387 4.00508
673 1 4.49787 9.13026 1.60188
674 1 4.95058 9.71056 12.9485
675 1 4.40804 9.72157 2.42095
676 1 5.05214 9.17347 0.77399
677 1 5.57138 9.335 1.60181
678 1 6.0928 11.1347 0.0673266
679 1 5.58859 9.71983 2.53162
680 1 6.20348 9.22753 0.954468
681 1 6.90224 9.35515 1.69889
682 1 7.2888 9.93852 12.8626
683 1 6.62445 9.87162 2.45185
684 1 7.28106 9.38847 0.70734
685 1 8.33719 9.11771 0.780779
686 1 8.47707 9.7789 0.0374344
687 1 7.87489 10.4766 1.51922
688 1 8.31332 8.62647 12.8341
689 1 4.50464 10.3285 1.56665
690 1 4.86005 10.9583 12.9433
691 1 4.438 10.8479 2.40858
692 1 5.07702 10.3618 0.685073
693 1 5.48775 10.4642 1.55028
694 1 5.62625 11.0017 12.1911
695 1 5.51385 10.8878 2.43292
696 1 6.02648 9.94602 0.0413215
697 1 6.14107 10.4687 0.832889
698 1 7.22626 10.9001 0.0428301
699 1 6.65635 11.0953 2.4399
700 1 6.65756 10.527 1.73988
701 1 7.1478 10.3043 0.876718
702 1 8.24673 10.8549 12.9005
703 1 7.71822 10.7491 2.41552
704 1 8.44528 10.2801 0.771039
705 1 4.38796 11.3673 1.58531
706 1 5.03421 12.0614 12.8301
707 1 4.51445 11.947 2.43939
708 1 4.77918 11.485 0.807074
709 1 5.54824 11.5287 1.58757
710 1 6.1891 12.2035 12.9347
711 1 5.73324 12.0196 2.34815
712 1 5.99779 11.633 0.861725
713 1 6.73053 11.5452 1.60201
714 1 7.14406 12.1394 0.0786969
715 1 6.73891 12.1855 2.46399
716 1 7.24258 11.5054 0.834128
717 1 7.83821 11.5187 1.67758
718 1 8.2911 11.9539 12.9291
719 1 7.80918 11.8502 2.52081
720 1 8.38784 11.3806 0.726619
721 1 4.45721 12.476 1.62772
722 1 5.01311 13.2841 0.0260428
723 1 4.40954 13.0892 2.42219
724 1 5.07704 12.4798 0.820982
725 1 5.44301 12.7176 1.70906
726 1 6.1587 13.2055 12.9024
727 1 5.66876 13.1675 2.49172
728 1 6.00926 12.8087 0.908636
729 1 6.58322 12.6303 1.5488
730 1 7.22533 13.239 0.00571542
731 1 6.66332 13.2232 2.37595
732 1 7.14221 12.6648 0.758003
733 1 7.70774 12.6408 1.61176
734 1 8.39189 12.966 0.145163
735 1 7.77691 13.184 2.35518
736 1 8.283 12.4688 0.913998
737 1 4.90979 9.66194 3.1574
738 1 4.97103 9.1998 4.02039
739 1 6.11977 10.0051 3.25034
740 1 5.97197 9.37305 3.96393
741 1 7.95163 9.79993 2.34991
742 1 7.18445 9.24997 4.06423
743 1 8.2343 9.82815 3.34081
744 1 8.95617 9.17748 4.88551
745 1 4.96498 10.922 3.25125
746 1 4.90388 10.2886 4.03562
747 1 6.06429 11.1342 3.25666
748 1 6.00354 10.5608 4.03697
749 1 7.23775 10.8629 3.27468
750 1 7.12529 10.273 4.10865
751 1 8.39457 10.8144 3.14748
752 1 8.29596 10.3987 4.05589
753 1 5.12826 11.9506 3.1524
754 1 4.95911 11.4365 4.03534
755 1 6.05229 12.2679 3.31241
756 1 6.08105 11.5974 4.07118
757 1 7.12655 12.0892 3.32873
758 1 7.22927 11.4661 3.93705
759 1 8.42167 11.9596 3.14301
760 1 8.33477 11.3673 4.0243
761 1 5.10245 13.1821 3.1287
762 1 4.9189 12.5173 3.95361
763 1 6.26953 13.3645 3.36775
764 1 6.15974 12.7635 4.13972
765 1 7.21179 13.2097 3.18457
766 1 7.31517 12.6019 4.14224
767 1 8.29434 12.9457 3.3042
768 1 8.44407 12.4027 4.06998
769 1 9.03861 9.05466 1.52025
770 1 9.46169 9.44134 12.9393
771 1 8.89451 9.53463 2.33686
772 1 9.61991 8.91958 0.791811
773 1 10.1388 8.84549 1.63562
774 1 10.6457 9.44436 12.9298
775 1 10.0275 9.46765 2.53363
776 1 10.6198 8.81027 0.787643
777 1 11.1384 8.69174 1.63168
778 1 11.8039 9.22955 0.0755002
779 1 11.1929 9.21994 2.3405
780 1 11.7707 8.5084 0.850498
781 1 12.314 8.56672 1.62074
782 1 12.7859 9.2429 12.9328
783 1 12.3108 9.20133 2.30088
784 1 12.8914 8.56848 0.865314
785 1 9.05634 10.1018 1.62096
786 1 9.45312 10.6592 12.8156
787 1 8.91346 10.7842 2.33838
788 1 9.48724 10.211 0.677303
789 1 10.1228 10.0549 1.67629
790 1 10.7581 10.5636 12.937
791 1 10.0023 10.6104 2.4542
792 1 10.5069 9.91698 0.747754
793 1 11.185 9.83296 1.59076
794 1 11.7531 10.3445 0.105884
795 1 11.1143 10.4128 2.45913
796 1 11.6618 9.75288 0.845764
797 1 12.3145 9.83939 1.63471
798 1 12.8314 10.2854 0.0392017
799 1 12.3342 10.4078 2.38558
800 1 12.8803 9.75346 0.894552
801 1 8.8299 11.2935 1.61179
802 1 9.52567 11.7408 12.9456
803 1 9.00472 11.9143 2.36355
804 1 9.52893 11.2375 0.886321
805 1 10.0104 11.24 1.66633
806 1 10.5684 11.5495 0.115745
807 1 10.1204 11.7507 2.5389
808 1 10.6051 10.9939 0.84726
809 1 11.2306 10.8246 1.63777
810 1 11.7501 11.5025 12.8986
811 1 11.1589 11.3944 2.3378
812 1 11.7558 10.9406 0.923248
813 1 12.4011 10.96 1.60114
814 1 12.8874 11.4479 12.8768
815 1 12.2769 11.545 2.45826
816 1 12.8616 10.8934 0.711688
817 1 8.95971 12.4216 1.65438
818 1 9.52363 12.841 0.133191
819 1 8.79526 12.9701 2.41046
820 1 9.49194 12.3282 0.917121
821 1 10.1617 12.2517 1.66569
822 1 10.6231 12.6515 12.871
823 1 10.0444 12.8652 2.49308
824 1 10.7069 12.187 0.826813
825 1 11.2256 12.0516 1.77791
826 1 11.8149 12.5977 0.109307
827 1 11.2377 12.6774 2.39738
828 1 11.72 11.9727 0.887029
829 1 12.295 12.1139 1.62835
830 1 12.853 12.4831 0.0380531
831 1 12.4779 12.612 2.52441
832 1 12.8143 11.9914 0.860745
833 1 9.2628 9.62867 3.31592
834 1 10.0039 8.861 4.77816
835 1 10.6442 9.46149 3.09588
836 1 10.7001 8.77961 4.01403
837 1 11.7308 9.24426 3.14864
838 1 11.7013 8.79318 4.12061
839 1 12.7951 9.0533 3.12527
840 1 12.8442 8.64425 4.04917
841 1 9.43888 10.7259 3.23022
842 1 9.45444 10.2183 4.15156
843 1 10.4692 10.5936 3.34439
844 1 10.5405 9.84664 3.89697
845 1 11.7296 10.4388 3.17438
846 1 11.7912 9.76722 4.04592
847 1 12.8475 10.2416 3.28641
848 1 12.9714 9.69078 3.95615
849 1 9.47174 11.7929 3.24516
850 1 9.36236 11.2932 4.02917
851 1 10.6589 11.6627 3.26212
852 1 10.4333 11.178 4.10647
853 1 11.6525 11.5944 3.20988
854 1 11.5667 10.875 3.93715
855 1 12.7709 11.3761 3.33686
856 1 12.8128 10.7797 3.99111
857 1 9.41179 12.954 3.19361
858 1 9.5059 12.3927 3.97856
859 1 10.6665 12.8095 3.21659
860 1 10.4568 12.3564 4.13985
861 1 11.7723 12.5247 3.20754
862 1 11.6818 12.0018 4.11471
863 1 12.9166 12.4181 3.3912
864 1 12.8699 11.9086 4.218
865 1 0.0365965 13.0627 4.84367
866 1 0.0194089 0.279132 5.60121
867 1 1.24302 13.0571 4.95742
868 1 1.07492 0.30467 5.71283
869 1 2.43942 13.1672 4.81015
870 1 2.18725 0.365147 5.62558
871 1 3.45893 0.14201 4.6689
872 1 3.48893 0.466844 5.73491
873 1 0.131669 0.808588 4.83497
874 1 13.3356 1.31656 5.81652
875 1 1.13589 0.856689 4.76783
876 1 1.13914 1.3849 5.67809
877 1 2.18162 0.934442 4.92559
878 1 2.36704 1.55073 5.4497
879 1 3.36642 1.09064 4.88314
880 1 3.49453 1.63116 5.80327
881 1 0.0683509 1.88051 4.85397
882 1 0.211517 2.30222 5.59517
883 1 1.22807 1.87965 4.82228
884 1 1.24979 2.5849 5.56019
885 1 2.28115 2.26062 4.79335
886 1 2.15587 2.79176 5.66439
887 1 3.52437 2.24735 5.00382
888 1 3.32452 2.72349 5.77781
889 1 13.3815 2.99115 4.90887
890 1 0.00337013 3.5272 5.60735
891 1 1.20099 3.08509 4.72541
892 1 1.07145 3.58797 5.61243
893 1 2.32703 3.31975 4.74932
894 1 2.27629 3.81085 5.6211
895 1 3.352 3.27156 4.91287
896 1 3.48014 3.93334 5.79316
897 1 13.3989 12.9826 8.13936
898 1 0.462169 0.245599 6.50504
899 1 0.580988 13.1202 7.43709
900 1 1.1278 13.2201 8.10342
901 1 1.69554 0.420689 6.50214
902 1 1.63286 13.3485 7.20968
903 1 2.22426 13.3444 8.0143
904 1 2.72745 0.588662 6.40786
905 1 2.80641 0.0416235 7.24308
906 1 3.37756 0.0155711 8.05381
907 1 4.11784 0.717614 6.39022
908 1 3.86617 0.12177 7.2049
909 1 0.0801095 0.719628 7.99673
910 1 0.615036 1.4475 6.45117
911 1 0.661507 0.824853 7.27589
912 1 1.26207 0.863882 8.12529
913 1 1.72112 1.53115 6.34676
914 1 1.68279 1.06544 7.21366
915 1 2.33 0.919059 8.0098
916 1 2.75974 1.69725 6.38048
917 1 2.91543 1.1672 7.16068
918 1 3.41205 0.656786 8.88047
919 1 3.95882 2.34623 7.31965
920 1 3.98173 1.0947 7.28386
921 1 13.4239 1.88234 8.13897
922 1 0.606063 2.51824 6.4896
923 1 0.46759 1.82195 7.34402
924 1 1.1094 2.00704 8.1214
925 1 1.57373 2.53809 6.54402
926 1 1.68143 2.07549 7.3167
927 1 2.12975 1.91729 8.19298
928 1 2.76314 2.72237 6.49709
929 1 2.74233 2.20083 7.28827
930 1 3.31562 1.8184 8.91124
931 1 4.02405 3.07256 6.53818
932 1 3.35905 2.23544 8.01834
933 1 13.3995 2.96884 7.92244
934 1 0.5845 3.58541 6.50597
935 1 0.562436 3.07713 7.29676
936 1 1.26202 3.06515 8.02803
937 1 1.68795 3.66101 6.35557
938 1 1.91103 3.20921 7.26199
939 1 2.30039 3.11833 8.21663
940 1 2.89386 3.9547 6.41132
941 1 2.94643 3.3648 7.25803
942 1 3.43503 3.3015 8.0008
943 1 3.9381 3.65856 7.10961
944 1 3.9666 1.79047 6.59342
945 1 4.52312 0.211389 4.95686
946 1 4.61034 0.946633 5.57837
947 1 5.61642 0.230284 4.8637
948 1 5.6938 0.915947 5.64071
949 1 6.8612 0.372403 4.78562
950 1 6.82241 0.906777 5.69862
951 1 8.01441 0.0892938 4.95573
952 1 7.87983 0.72897 5.71694
953 1 4.45311 1.43439 4.76641
954 1 4.49048 2.91041 5.52181
955 1 5.60994 1.40382 4.88615
956 1 5.61431 2.07827 5.64544
957 1 6.68567 1.54534 4.95124
958 1 6.67906 2.09628 5.78453
959 1 7.83211 1.32383 4.86052
960 1 7.8134 1.9526 5.59683
961 1 4.59673 2.00187 5.64036
962 1 4.38456 4.09036 5.81351
963 1 5.4389 2.54275 4.79218
964 1 5.6445 3.16854 5.70406
965 1 6.55759 2.5262 4.98275
966 1 6.87888 3.25384 5.56784
967 1 7.7724 2.47343 4.88612
968 1 7.87955 3.15046 5.6546
969 1 5.6477 3.70914 4.894
970 1 4.11232 4.57412 7.24177
971 1 5.2079 4.68122 4.16644
972 1 5.6861 4.37471 5.46425
973 1 6.71565 3.65946 4.83022
974 1 6.77409 4.41339 5.66002
975 1 7.95391 4.14185 5.66348
976 1 8.54096 4.3014 6.53664
977 1 4.41935 0.143203 8.17892
978 1 5.12895 0.703711 6.4754
979 1 5.06122 0.290825 7.39993
980 1 5.60541 0.424364 8.16608
981 1 6.1123 0.929019 6.47285
982 1 6.1186 0.34698 7.23728
983 1 6.77257 13.1731 8.93358
984 1 7.26857 0.944629 6.45771
985 1 6.68665 0.336783 8.15501
986 1 7.78187 0.257676 8.09363
987 1 8.47349 0.889549 6.35441
988 1 8.45981 0.197893 7.16968
989 1 4.55353 1.39164 8.09495
990 1 5.06017 1.95479 6.54125
991 1 5.10992 1.35877 7.21265
992 1 5.66763 1.54378 8.02357
993 1 6.21554 1.95873 6.54825