data.lammps (converted from cfg to data.lammps)
    
2298  atoms
1  atom types
0.0   13.4375  xlo xhi
0.0   13.4375  ylo yhi
0.0   12.952  zlo zhi
0.0  0.0 0.0 xy xz yz
    
    
    
Atoms
  
1 1 0.0714067 13.0703 1.627
2 1 0.630732 0.224828 0.0427505
3 1 13.4019 0.633229 1.58438
4 1 1.09919 13.0958 1.58446
5 1 1.68653 13.2998 0.778075
6 1 1.30036 13.2923 11.2888
7 1 1.16059 0.28728 2.40659
8 1 2.26473 1.04712 1.53317
9 1 2.35696 13.3418 1.46605
10 1 2.835 0.00120724 0.810142
11 1 2.2925 0.300695 2.32674
12 1 2.83938 0.487707 12.9325
13 1 3.23107 13.0031 2.37887
14 1 3.84033 0.747583 12.8694
15 1 3.31979 0.661196 2.38208
16 1 3.60571 0.208848 1.5881
17 1 12.8284 0.744347 0.73827
18 1 1.03175 1.95041 11.4093
19 1 0.0488993 1.1113 2.37335
20 1 0.616636 0.836858 0.938647
21 1 1.21922 0.84332 1.58395
22 1 0.564718 1.21011 0.017314
23 1 1.06691 1.97487 1.56935
24 1 1.61607 1.53795 0.0309009
25 1 1.71196 0.985272 0.765199
26 1 2.11481 1.41693 12.2067
27 1 2.30123 1.56793 2.30434
28 1 2.93596 1.62007 3.22681
29 1 3.36752 1.29456 1.61842
30 1 3.90564 1.35329 0.819378
31 1 5.06352 1.98892 3.29232
32 1 5.61483 0.293345 1.62248
33 1 12.8656 1.80763 0.825026
34 1 0.5523 2.43803 0.121728
35 1 0.064264 2.33065 2.5328
36 1 13.3293 1.85006 1.72632
37 1 2.29101 2.10805 1.62083
38 1 1.553 2.56594 0.0046911
39 1 1.24378 2.41254 2.45584
40 1 2.71795 2.33537 0.734139
41 1 2.85783 1.19096 0.716299
42 1 2.56151 2.82393 12.8904
43 1 2.23589 2.69253 2.398
44 1 3.40654 2.32471 1.63755
45 1 3.38613 1.79788 2.39278
46 1 3.84267 2.50963 0.673821
47 1 2.70172 2.53566 3.25403
48 1 3.8534 1.91592 0.0238679
49 1 13.3887 2.84002 1.63028
50 1 0.58251 3.07959 0.856884
51 1 13.3599 3.49476 2.35509
52 1 1.13826 3.07341 1.62678
53 1 0.367517 1.81275 0.781632
54 1 1.62724 3.65426 12.9513
55 1 0.995394 3.5201 2.48642
56 1 1.65629 3.22049 0.75255
57 1 2.18232 3.28027 1.56771
58 1 2.77502 3.94444 12.815
59 1 2.23525 3.70117 2.56794
60 1 2.845 3.26726 0.781
61 1 3.41308 3.38222 1.69011
62 1 4.50555 4.00053 12.3999
63 1 3.27434 3.86915 2.45229
64 1 3.89309 3.70264 0.651965
65 1 0.106047 0.0942907 2.57652
66 1 0.696191 0.277045 3.30548
67 1 1.73259 0.304824 3.1482
68 1 1.58839 13.2945 4.16852
69 1 2.82503 0.538971 3.27284
70 1 2.83015 13.372 3.85208
71 1 3.92091 1.76375 3.37678
72 1 3.92024 0.688558 3.20396
73 1 0.560213 1.30139 3.20063
74 1 0.599562 0.752175 4.05096
75 1 1.13123 1.39518 2.43211
76 1 1.73332 0.868914 4.00829
77 1 1.82532 1.33895 3.16276
78 1 2.22986 0.952023 4.90839
79 1 3.80616 2.36308 4.1149
80 1 4.45812 1.92652 2.46101
81 1 0.560247 2.28876 3.24292
82 1 0.562464 1.88572 4.09589
83 1 1.61542 2.54666 3.41191
84 1 1.62513 1.84185 3.9601
85 1 2.70208 2.09077 4.15631
86 1 3.35252 2.21794 4.87095
87 1 3.33521 2.87282 2.64498
88 1 4.59081 2.54533 4.83049
89 1 0.50339 3.40837 3.23913
90 1 0.501744 2.98149 4.18252
91 1 1.63471 3.72201 3.17355
92 1 1.6723 3.22328 4.09724
93 1 2.86861 3.87934 3.35654
94 1 2.67371 3.21268 3.96661
95 1 3.93532 3.97875 3.28987
96 1 3.96387 2.80756 3.26223
97 1 4.66786 0.231542 1.60223
98 1 5.04985 0.194872 0.694861
99 1 4.55421 1.33142 1.60628
100 1 5.65474 1.41787 1.63334
101 1 5.68727 0.882337 2.47274
102 1 6.27486 0.905143 0.00139435
103 1 5.04159 13.1445 3.15131
104 1 6.83193 0.429507 1.59914
105 1 6.75639 1.52436 1.57909
106 1 7.24524 1.14589 12.8374
107 1 6.88829 0.961458 2.39121
108 1 7.84221 0.299569 1.76439
109 1 7.42865 0.503103 0.81898
110 1 7.89932 1.45427 11.4333
111 1 8.03898 0.954341 2.51604
112 1 8.50756 0.24141 0.774622
113 1 5.11066 0.810678 0.0449556
114 1 4.39076 1.94736 12.1381
115 1 4.10103 1.28 4.10286
116 1 4.97111 1.42338 0.791533
117 1 6.06342 2.0584 12.9384
118 1 6.20049 2.55108 0.790159
119 1 5.569 1.84733 2.43116
120 1 5.02743 1.96474 0.0713462
121 1 6.02489 1.453 0.720704
122 1 6.78412 2.16967 12.28
123 1 6.74972 1.94582 2.52595
124 1 7.30191 1.50335 0.828659
125 1 7.92075 1.40707 1.61085
126 1 8.35984 2.01185 0.0158759
127 1 7.81946 2.02999 2.50817
128 1 7.92352 1.96846 12.1647
129 1 4.48235 2.54419 1.62438
130 1 4.98269 2.98475 0.00542313
131 1 4.52646 3.02956 2.53456
132 1 5.05398 2.49219 0.904695
133 1 5.74538 2.51338 1.63939
134 1 6.00217 3.19897 0.0679981
135 1 5.57925 3.00346 2.39173
136 1 6.75616 2.63104 1.74798
137 1 7.79472 3.1179 2.40775
138 1 7.80885 3.14072 12.1682
139 1 6.6294 3.23849 2.461
140 1 7.31633 2.08144 0.0936027
141 1 7.16748 2.67507 0.882733
142 1 8.38739 3.04077 12.9141
143 1 7.75694 3.69073 1.69856
144 1 7.85525 2.43811 1.67907
145 1 4.38421 3.51694 1.70025
146 1 5.19252 4.1674 0.0255079
147 1 4.42868 4.17259 2.48233
148 1 4.89581 3.62337 0.797117
149 1 5.49606 3.71856 1.66718
150 1 6.20751 4.20172 0.0531914
151 1 5.63774 4.18101 2.45192
152 1 5.98822 3.59163 0.954104
153 1 7.2486 4.21401 0.139436
154 1 6.8162 4.35442 12.1535
155 1 6.64013 3.73933 1.60434
156 1 7.32684 3.61883 0.805384
157 1 7.82187 4.27661 2.56245
158 1 8.37066 4.26387 0.0630414
159 1 8.40039 4.12921 3.25436
160 1 8.33966 3.64408 0.732015
161 1 5.04807 0.770383 3.19111
162 1 4.51046 13.0533 2.37183
163 1 6.3153 0.865419 3.1999
164 1 6.18184 0.370473 4.07303
165 1 7.36352 0.942365 3.28564
166 1 7.3897 0.323662 4.00823
167 1 8.43127 0.820662 3.44307
168 1 8.42979 0.250013 4.11661
169 1 5.32423 1.45325 3.92167
170 1 4.58621 1.39702 4.9455
171 1 6.25401 2.08261 3.3133
172 1 6.37511 1.44152 4.13072
173 1 7.32576 2.18226 3.31703
174 1 7.38541 1.54769 4.04275
175 1 8.50583 2.04723 3.24863
176 1 8.45079 1.50452 3.98002
177 1 5.13701 3.02255 3.31448
178 1 5.04618 2.47375 4.08493
179 1 6.07707 3.14865 3.27772
180 1 6.20478 2.60533 4.14187
181 1 7.20663 3.16716 3.2866
182 1 7.2944 2.72326 4.11195
183 1 8.40186 3.12511 3.18829
184 1 8.5211 2.57665 4.04079
185 1 4.96438 3.69035 4.15457
186 1 4.34421 3.6355 4.82614
187 1 6.7671 4.32655 2.28318
188 1 6.18994 3.6464 4.13969
189 1 7.21613 4.31563 3.19416
190 1 7.41663 3.81399 4.02815
191 1 8.38319 5.19613 3.33458
192 1 7.87313 3.74304 4.93154
193 1 8.91346 0.175973 1.56591
194 1 8.95276 0.873271 12.1519
195 1 9.03128 0.732176 2.44007
196 1 9.64843 0.0238005 0.844084
197 1 10.0629 0.0788611 1.64354
198 1 10.5211 0.334282 12.8727
199 1 10.0497 0.55037 2.43894
200 1 10.7211 0.0210705 0.893691
201 1 11.1815 13.1945 1.64356
202 1 11.1013 0.442338 12.0975
203 1 11.181 0.31541 2.38562
204 1 11.7774 13.1888 0.832965
205 1 12.3703 13.0915 1.70251
206 1 11.6315 0.308276 12.8956
207 1 12.4049 0.246554 2.31805
208 1 12.9005 12.9831 0.801246
209 1 8.48305 1.38989 0.800504
210 1 10.1019 2.33834 1.70479
211 1 9.05615 1.23016 1.56692
212 1 9.43968 0.553561 0.0340136
213 1 9.66111 1.22899 0.776061
214 1 10.1185 2.74716 12.1409
215 1 10.0487 1.72044 2.3897
216 1 10.6679 1.06538 0.737151
217 1 11.2437 0.992183 1.62783
218 1 11.7074 2.00707 0.927758
219 1 11.2857 1.44424 2.54288
220 1 11.7055 0.817638 0.777699
221 1 12.2271 0.870739 1.6091
222 1 12.3152 0.358306 12.2664
223 1 12.3302 1.38455 2.38822
224 1 0.615604 13.1476 0.845854
225 1 9.03318 2.46702 1.65668
226 1 9.06459 3.00722 12.0856
227 1 9.41631 2.80695 3.14206
228 1 10.0712 2.88844 2.56248
229 1 10.2147 1.16902 1.64432
230 1 10.1273 2.0517 11.3983
231 1 9.93406 3.34005 1.61197
232 1 10.6202 2.06518 0.737449
233 1 11.1682 2.10974 1.64129
234 1 12.2291 2.49862 12.2674
235 1 11.2223 2.56804 2.39076
236 1 11.6067 2.48427 0.116877
237 1 12.2542 2.0418 1.61059
238 1 11.7165 3.87411 12.8739
239 1 12.3171 2.45296 2.46031
240 1 12.8443 1.22935 12.8337
241 1 8.86471 3.06446 2.32091
242 1 9.6618 3.95257 12.766
243 1 8.78873 3.68167 1.60448
244 1 9.50965 2.80609 0.00987839
245 1 10.648 3.23109 0.901986
246 1 10.5914 3.834 0.267196
247 1 10.0535 4.55503 1.52784
248 1 10.118 3.30787 11.3956
249 1 11.0999 3.77768 2.29607
250 1 12.3663 3.6206 12.2547
251 1 11.2113 4.33787 1.53011
252 1 11.7915 4.35358 0.710795
253 1 12.1834 3.20803 1.55301
254 1 12.8644 3.05565 0.923559
255 1 12.3744 3.60966 2.42056
256 1 12.8299 2.51717 0.0888844
257 1 9.46348 0.797658 3.19784
258 1 9.62093 0.217206 3.96417
259 1 10.6494 0.449701 3.2599
260 1 10.7383 13.2762 4.10515
261 1 11.8486 0.277922 3.12635
262 1 11.8034 13.1757 4.25191
263 1 12.9294 0.113856 3.24571
264 1 12.9582 13.0887 3.97775
265 1 8.91993 1.84146 2.36627
266 1 9.56143 1.28841 4.12475
267 1 10.6564 1.47624 3.19281
268 1 10.722 0.991251 4.06559
269 1 11.8095 1.43611 3.26151
270 1 11.7153 0.601313 3.84593
271 1 12.9089 1.20765 3.1749
272 1 12.8345 0.819787 4.12156
273 1 9.73099 2.2761 4.06373
274 1 9.51633 1.82819 3.15987
275 1 10.7458 2.67187 3.20398
276 1 10.7023 2.10179 3.98503
277 1 11.7323 2.57432 3.27631
278 1 11.8121 1.9181 4.1102
279 1 12.8705 2.24735 3.1833
280 1 12.8064 1.92281 4.11964
281 1 10.037 3.96581 2.32746
282 1 9.47877 3.92438 3.27923
283 1 12.8832 3.56407 3.20164
284 1 10.5417 3.21202 4.05974
285 1 10.5449 3.69799 3.20623
286 1 11.756 3.09724 3.98028
287 1 11.6952 3.60489 3.12078
288 1 12.9266 2.864 3.85976
289 1 0.0151025 4.14324 1.56188
290 1 0.554251 4.69991 0.0658375
291 1 13.3645 4.55996 2.52529
292 1 0.788049 4.17922 0.837954
293 1 1.2553 4.11583 1.71698
294 1 1.72466 4.94121 12.8299
295 1 1.00358 4.75427 2.30916
296 1 1.80318 4.34492 0.721331
297 1 2.24305 4.35594 1.67761
298 1 2.86822 4.94664 0.0219882
299 1 2.24128 4.8284 2.5364
300 1 2.86317 4.34265 0.815244
301 1 3.39192 4.5195 1.60711
302 1 3.95569 4.96987 0.053002
303 1 3.44739 5.02447 2.5625
304 1 4.03169 4.57937 0.78019
305 1 0.0955291 5.1588 1.65409
306 1 0.769919 5.84555 0.0600038
307 1 0.0732932 5.7016 2.46842
308 1 0.600237 5.28783 0.85259
309 1 1.25548 5.31413 1.57183
310 1 1.7513 5.8983 12.856
311 1 1.28276 5.86949 2.46365
312 1 1.77606 5.3025 0.75047
313 1 2.31777 5.46167 1.63882
314 1 2.76976 6.15706 12.8715
315 1 2.22318 6.0076 2.33544
316 1 2.93104 5.58065 0.75359
317 1 3.35749 5.49455 1.58485
318 1 3.96371 6.28046 0.00317171
319 1 3.30127 6.13406 2.27014
320 1 3.94514 5.74347 0.7989
321 1 0.0264502 6.3246 1.63224
322 1 0.566478 6.91706 12.8579
323 1 0.0286626 6.87093 2.40748
324 1 0.583204 6.33145 0.809118
325 1 1.14283 6.37358 1.64946
326 1 1.69552 7.08288 0.0876874
327 1 1.0413 6.98591 2.54612
328 1 1.67119 6.4292 0.867651
329 1 2.25683 6.67699 1.63753
330 1 2.8006 7.17491 12.891
331 1 2.32287 7.14707 2.51428
332 1 2.7904 6.60381 0.862055
333 1 3.44769 6.77652 1.6168
334 1 3.97101 7.50797 12.9494
335 1 3.41556 7.3869 2.40962
336 1 3.95363 6.87784 0.690669
337 1 0.0599819 7.49016 1.62598
338 1 0.593944 7.97764 12.8579
339 1 13.4153 8.01937 2.40446
340 1 0.54157 7.37437 0.848531
341 1 1.24985 7.486 1.68793
342 1 1.73079 8.30884 12.8075
343 1 1.03381 8.17611 2.38132
344 1 1.53178 7.62588 0.727036
345 1 2.2394 7.74032 1.5826
346 1 2.7103 8.41362 0.246651
347 1 2.24753 8.19752 2.46387
348 1 2.78761 7.7273 0.778624
349 1 3.27051 7.96408 1.63345
350 1 3.73335 8.55849 0.0565351
351 1 2.80896 9.40075 3.31461
352 1 3.878 7.91341 0.82446
353 1 0.573207 4.56411 3.22345
354 1 0.530087 4.07201 4.06714
355 1 1.59788 4.84631 3.18469
356 1 1.68352 4.36348 4.05909
357 1 2.82202 4.93694 3.23007
358 1 2.73934 4.55448 4.09659
359 1 4.04715 5.09515 3.34471
360 1 3.89803 4.64145 4.02656
361 1 0.674311 5.78271 3.21577
362 1 0.385203 5.25698 3.90333
363 1 1.82097 5.94088 3.3742
364 1 1.57125 5.3892 4.08847
365 1 2.92154 5.99068 3.19348
366 1 2.82118 5.62288 4.12872
367 1 4.00701 6.29746 3.26962
368 1 3.96283 5.77055 4.06729
369 1 0.554214 6.90072 3.33274
370 1 0.594865 6.31411 4.08037
371 1 1.78687 7.09914 3.23211
372 1 1.70836 6.58659 3.98389
373 1 2.95891 7.03461 3.23867
374 1 2.93925 6.64628 4.07856
375 1 5.09125 7.56977 3.26221
376 1 3.42667 6.89 5.02522
377 1 0.404551 7.90714 3.33418
378 1 0.738079 7.4515 4.14309
379 1 1.59323 8.15168 3.14982
380 1 1.72009 7.64197 4.02906
381 1 4.08548 8.40672 3.24305
382 1 2.68059 7.67495 3.8789
383 1 4.10236 7.33722 3.19562
384 1 3.84115 7.86712 4.0439
385 1 4.49577 4.59115 1.656
386 1 4.92612 5.38287 12.8594
387 1 4.55449 5.24273 2.33119
388 1 5.12942 4.81549 0.793864
389 1 5.55491 5.33833 2.48251
390 1 6.20202 4.87328 0.710551
391 1 6.24076 5.40531 3.25103
392 1 5.67644 4.79177 1.59433
393 1 6.72748 4.96752 1.55877
394 1 6.78368 5.36551 12.3098
395 1 6.67807 5.365 2.48931
396 1 7.40592 4.85143 0.908001
397 1 7.88535 4.73676 1.61177
398 1 8.44273 5.2585 12.931
399 1 7.85231 5.36164 2.47528
400 1 8.6261 4.71912 1.08649
401 1 4.51946 5.77493 1.51816
402 1 5.13204 6.47403 0.064594
403 1 4.38128 6.27675 2.5142
404 1 5.14152 5.80546 0.876897
405 1 5.69962 5.86357 1.72615
406 1 6.18243 6.49027 12.8996
407 1 6.10898 6.67129 3.26113
408 1 6.17933 6.05468 0.883473
409 1 6.74294 6.00267 1.76319
410 1 7.29217 5.99448 0.81279
411 1 6.73313 6.60867 2.45311
412 1 7.35776 5.32292 0.0445693
413 1 7.77255 5.91568 1.67827
414 1 8.5009 6.271 0.00197852
415 1 7.86837 6.486 2.4253
416 1 8.40282 5.83863 0.915214
417 1 4.4926 6.81183 1.73005
418 1 4.938 7.53021 12.8863
419 1 4.63514 7.46109 2.39686
420 1 5.07701 6.96548 0.860583
421 1 5.62022 6.5204 2.39986
422 1 6.12949 7.62622 0.0309112
423 1 5.699 7.19522 1.62827
424 1 6.23562 7.09938 0.887444
425 1 6.88804 7.16986 1.59025
426 1 7.19784 7.74465 0.0120174
427 1 6.7669 7.69805 2.35492
428 1 7.33509 7.16955 0.722939
429 1 7.89297 6.89262 1.54257
430 1 8.37745 7.02807 0.601991
431 1 7.85257 7.57591 2.41529
432 1 8.87757 6.86998 1.46145
433 1 4.48681 8.03389 1.62155
434 1 5.05036 8.51018 12.8977
435 1 4.49324 8.69557 2.24009
436 1 5.05869 7.96496 0.806274
437 1 5.65755 7.66148 2.42262
438 1 6.14143 8.87035 0.186669
439 1 5.60783 8.22641 1.63518
440 1 6.15448 8.249 0.835435
441 1 6.80664 8.34153 1.56761
442 1 7.36543 8.95741 0.0548495
443 1 6.65457 8.68538 2.51156
444 1 7.40529 8.39666 0.781717
445 1 7.90435 7.96908 1.50006
446 1 8.48983 8.29501 0.85749
447 1 7.83843 9.24696 1.71443
448 1 8.4455 7.57773 12.9363
449 1 5.07024 5.32597 3.24806
450 1 5.12201 4.15243 3.20715
451 1 6.21831 5.91964 4.04314
452 1 6.20047 4.28439 3.28591
453 1 7.38901 5.43589 3.25778
454 1 7.29104 4.80685 4.11617
455 1 8.48265 5.94474 4.04552
456 1 8.41902 3.66953 4.09939
457 1 5.10645 5.87758 4.09369
458 1 4.53705 5.30193 5.93843
459 1 6.26643 7.03229 4.13507
460 1 6.3158 7.62966 3.29451
461 1 7.34044 6.61943 3.2495
462 1 8.5162 6.53007 6.3614
463 1 8.43168 6.30881 3.17452
464 1 7.8111 6.58161 5.65034
465 1 5.11154 8.11543 4.14305
466 1 5.22684 6.45575 3.29483
467 1 6.20604 8.78936 3.38071
468 1 5.02388 7.01029 3.98257
469 1 6.16942 8.2116 4.01288
470 1 7.39315 7.76253 3.2437
471 1 8.48354 7.42157 3.11352
472 1 8.50669 7.05217 3.94697
473 1 5.08265 8.61885 3.20501
474 1 4.46339 7.9383 4.84091
475 1 5.62351 8.10198 4.98748
476 1 6.74366 8.19349 4.74927
477 1 7.4284 8.90605 3.15968
478 1 6.70491 9.23718 4.79183
479 1 7.8797 8.64801 2.3079
480 1 8.43168 8.07142 4.11964
481 1 8.95791 4.21761 2.33218
482 1 9.44405 4.95329 12.9457
483 1 9.50129 4.45659 0.916477
484 1 10.0453 5.09276 2.3507
485 1 11.1784 3.1936 1.57593
486 1 9.98256 5.14096 12.1673
487 1 9.89838 5.53386 1.6083
488 1 10.5514 5.03194 12.9517
489 1 10.6862 4.52842 0.731447
490 1 12.2945 4.62296 12.1377
491 1 11.2549 4.98623 2.37708
492 1 11.7615 5.03023 12.8915
493 1 12.2413 4.25136 1.57588
494 1 12.9704 4.78852 0.0761717
495 1 12.3515 4.84058 2.42162
496 1 12.9313 4.13425 0.794153
497 1 8.91241 5.73209 1.63018
498 1 9.5433 6.28444 0.106117
499 1 9.35949 6.20873 3.08035
500 1 8.92546 5.10302 2.34227
501 1 9.54415 5.59473 0.730552
502 1 10.6462 6.2596 0.0402319
503 1 10.1128 6.17643 2.48457
504 1 10.5505 5.56845 0.789915
505 1 11.1733 5.55229 1.5426
506 1 11.1567 5.95524 12.1169
507 1 11.2535 6.05748 2.31437
508 1 11.8153 5.44791 0.909298
509 1 12.3335 5.30316 1.62456
510 1 12.9017 5.8912 0.0134968
511 1 12.2298 5.8439 2.44758
512 1 12.9123 5.35666 0.877739
513 1 8.94052 6.48834 2.20494
514 1 9.55534 7.33427 12.7838
515 1 9.14255 7.49001 2.38869
516 1 9.56493 6.87504 0.797482
517 1 10.1387 6.59906 1.52918
518 1 10.6912 7.24409 12.9427
519 1 10.2282 7.29089 2.28517
520 1 10.7076 6.72511 0.947426
521 1 11.3321 6.70886 1.59554
522 1 11.7388 7.11717 12.9162
523 1 11.2063 7.15718 2.46618
524 1 12.9157 6.53222 0.702317
525 1 12.4694 6.39035 1.61803
526 1 12.3188 6.88544 12.1187
527 1 12.3581 6.95047 2.46531
528 1 12.8265 6.94477 12.8654
529 1 8.93063 7.97893 1.73199
530 1 9.99192 8.3355 12.187
531 1 8.42276 8.52353 3.26069
532 1 9.55699 7.95375 0.847671
533 1 10.0851 7.84355 1.62308
534 1 10.6355 8.29401 12.7239
535 1 10.1561 8.4692 2.52122
536 1 10.6288 7.74693 0.643242
537 1 11.1873 7.731 1.49322
538 1 11.8219 7.65283 0.807714
539 1 11.3453 8.25542 2.34144
540 1 11.842 6.54332 0.847216
541 1 12.3399 7.5348 1.61752
542 1 12.9357 7.98742 0.0477955
543 1 12.856 8.02919 3.28414
544 1 12.8958 7.54216 0.847531
545 1 9.49529 5.05964 3.26556
546 1 9.48772 3.27454 4.02551
547 1 10.6361 4.74539 2.99981
548 1 10.8029 4.38947 3.96854
549 1 11.7065 4.69883 3.14604
550 1 11.7271 4.11734 4.03413
551 1 12.7618 4.66504 3.43762
552 1 12.8072 3.99707 4.0999
553 1 9.65823 6.79697 3.99717
554 1 9.52731 5.68574 3.92087
555 1 10.666 5.99862 3.18411
556 1 10.6292 5.41268 3.87107
557 1 11.7755 5.98135 3.29841
558 1 11.6692 5.26649 3.89213
559 1 12.938 5.83514 3.08197
560 1 12.8351 5.41877 3.97861
561 1 9.49878 8.38422 3.26098
562 1 9.63561 7.25384 3.28555
563 1 10.6885 7.19757 3.2218
564 1 10.7471 6.57555 4.00436
565 1 11.7699 7.0823 3.34079
566 1 11.9168 6.41216 4.05925
567 1 12.9082 6.83353 3.26025
568 1 13.0083 6.46271 4.10477
569 1 8.94354 8.56059 2.52414
570 1 9.01357 7.81733 4.86603
571 1 10.6462 8.23793 3.17231
572 1 10.6532 7.75005 4.13259
573 1 12.354 8.03986 2.45785
574 1 11.8076 8.63244 4.05693
575 1 12.7829 7.46819 4.02684
576 1 12.344 7.46442 4.93276
577 1 0.0202707 8.58191 1.51002
578 1 0.131135 9.10289 12.153
579 1 0.505078 9.10782 3.16178
580 1 0.606926 8.53339 0.709285
581 1 1.0964 8.64768 1.56884
582 1 1.73364 9.3838 0.165712
583 1 1.21144 9.17182 2.56369
584 1 1.71403 8.68291 0.938488
585 1 2.26679 8.81057 1.71902
586 1 2.79755 9.61583 12.8867
587 1 2.23521 9.42474 2.50733
588 1 2.79001 9.18199 0.799629
589 1 3.31273 9.01277 1.59583
590 1 3.91842 9.62204 0.0976324
591 1 3.44832 8.294 2.51962
592 1 3.99592 8.98676 0.815674
593 1 13.349 9.03951 2.44226
594 1 0.572005 9.75966 0.772821
595 1 13.428 10.1226 2.3905
596 1 0.694321 9.18034 0.0387694
597 1 1.04204 9.78546 1.78365
598 1 1.80189 10.2702 12.8634
599 1 1.111 10.3762 2.44333
600 1 1.57806 9.96436 0.987161
601 1 2.2138 9.95148 1.51524
602 1 2.83955 10.6994 0.00734939
603 1 2.21602 10.5721 2.43749
604 1 2.85418 10.0842 0.895117
605 1 3.34553 10.0905 1.76139
606 1 3.85679 10.7176 0.042575
607 1 3.43086 10.7088 2.40802
608 1 3.86931 10.2212 0.897334
609 1 13.4032 10.8041 1.57078
610 1 0.604447 12.0212 0.711058
611 1 13.3918 11.2567 2.37488
612 1 0.511967 10.3283 12.9342
613 1 0.591468 10.8648 0.967833
614 1 2.81504 11.7656 12.8731
615 1 1.04984 11.4911 2.49917
616 1 1.27102 11.0063 1.66717
617 1 2.23816 11.1318 1.62203
618 1 2.82545 12.266 0.901494
619 1 2.2869 11.6753 2.58905
620 1 1.6025 10.8939 0.680065
621 1 3.41509 11.2588 1.58804
622 1 3.94764 11.7583 12.9179
623 1 3.35397 11.7559 2.44536
624 1 4.02261 11.3171 0.875116
625 1 0.124918 11.9476 1.67067
626 1 0.0755325 12.6008 12.2366
627 1 13.4328 12.5316 2.51813
628 1 0.618685 12.5414 0.0138874
629 1 1.16394 11.9662 1.57622
630 1 1.68494 0.347452 0.0120512
631 1 1.08868 12.5406 2.39503
632 1 1.75937 12.2378 0.839168
633 1 2.24938 12.1342 1.71662
634 1 1.77152 12.5645 12.873
635 1 2.14424 12.7079 2.39643
636 1 2.77011 12.812 12.8877
637 1 3.36256 12.4264 1.67967
638 1 3.96882 0.267783 0.726597
639 1 3.89876 12.9078 3.11062
640 1 3.82837 12.4491 0.734531
641 1 0.539391 9.83745 4.04363
642 1 0.596374 8.5405 3.93126
643 1 1.73692 9.32149 3.38015
644 1 1.68298 8.6924 4.02814
645 1 2.82773 8.34435 3.29518
646 1 2.80407 8.82019 4.11043
647 1 3.32453 9.44836 2.35932
648 1 3.78176 9.46329 3.2886
649 1 0.472707 10.3245 3.19641
650 1 13.3829 9.76607 4.87416
651 1 1.55133 10.4405 3.28272
652 1 1.57354 9.86889 4.04946
653 1 2.76982 10.522 3.2288
654 1 2.7941 10 4.11244
655 1 3.84356 10.7127 3.28135
656 1 4.05473 10.1135 3.94711
657 1 0.42568 11.3693 3.30136
658 1 0.607274 10.9579 4.14201
659 1 1.56738 11.4872 3.14601
660 1 1.74263 10.9724 4.03398
661 1 2.93729 11.6387 3.29803
662 1 2.71846 11.0249 4.059
663 1 4.03333 11.7537 3.27623
664 1 3.93915 11.3208 4.24107
665 1 0.514612 13.0018 4.07032
666 1 0.716865 12.5655 3.24322
667 1 1.80006 12.7032 3.29812
668 1 1.691 12.0834 3.95129
669 1 2.86008 12.72 3.27472
670 1 2.81784 12.2059 4.0184
671 1 4.05755 0.183325 3.96228
672 1 3.90771 12.5192 3.94176
673 1 4.47231 9.29234 1.65846
674 1 5.00693 9.83116 0.0348305
675 1 4.39601 9.76983 2.55502
676 1 5.01072 9.08988 0.757693
677 1 5.5097 9.29999 1.52046
678 1 6.05342 11.1229 0.0112412
679 1 5.60922 9.79179 2.45541
680 1 6.25553 9.51989 0.907663
681 1 6.68588 9.26958 1.64871
682 1 7.20688 10.0436 12.877
683 1 6.7227 9.83801 2.39165
684 1 7.35449 9.54287 0.846878
685 1 8.46291 9.378 0.907712
686 1 8.4533 9.79387 12.9304
687 1 7.86272 10.4941 1.66648
688 1 8.34058 8.69252 0.0390895
689 1 4.50543 10.2165 1.53543
690 1 4.90924 10.9003 0.000440542
691 1 4.48951 10.8345 2.49121
692 1 5.03887 10.4424 0.76978
693 1 5.6425 10.3767 1.69283
694 1 5.55775 10.9963 12.2318
695 1 5.52416 10.8968 2.48573
696 1 6.09657 9.96204 12.9158
697 1 6.12031 10.5138 0.80109
698 1 7.30496 11.0791 12.8905
699 1 6.72969 11.0475 2.40217
700 1 6.78402 10.4812 1.57652
701 1 7.2781 10.5234 0.811524
702 1 8.36867 10.8567 12.9265
703 1 7.89794 11.0582 2.45106
704 1 8.41314 10.3716 0.786338
705 1 4.53293 11.3477 1.64735
706 1 5.02569 12.1168 12.876
707 1 4.41993 12.0322 2.32021
708 1 5.09692 11.4532 0.818779
709 1 5.614 11.419 1.68759
710 1 6.1528 12.1901 0.0633546
711 1 5.63217 12.5092 1.56446
712 1 6.16655 11.5984 0.832306
713 1 6.63636 11.7505 1.65736
714 1 7.25261 12.1065 0.146297
715 1 6.67102 12.2157 2.48048
716 1 7.26406 11.5859 0.885308
717 1 7.74986 11.6394 1.72938
718 1 8.28107 11.9936 12.9129
719 1 7.83991 12.2495 2.39622
720 1 8.37163 11.4554 0.882109
721 1 4.38263 12.4984 1.48444
722 1 5.71782 13.2218 11.9739
723 1 4.4772 0.827988 2.43698
724 1 5.09574 13.2039 12.8038
725 1 5.13474 12.5536 0.825483
726 1 6.15902 0.447983 0.898133
727 1 5.63066 13.0764 2.27489
728 1 6.18922 12.8822 0.679261
729 1 6.67833 12.805 1.54348
730 1 7.24264 13.3614 0.0649367
731 1 6.68041 13.29 2.38391
732 1 7.34873 12.7483 0.832267
733 1 7.79551 12.77 1.63744
734 1 8.37317 13.0946 0.0104156
735 1 7.88718 13.301 2.66199
736 1 8.39048 12.5021 0.798363
737 1 5.03011 9.73419 3.23505
738 1 5.05216 9.14543 4.12815
739 1 6.27405 9.94642 3.32523
740 1 6.0849 9.44081 4.01196
741 1 7.82581 9.88806 2.40004
742 1 7.33463 9.4611 4.13895
743 1 8.43171 9.76539 3.25925
744 1 8.96213 9.03121 4.86559
745 1 5.0528 11.0005 3.4493
746 1 5.04526 10.2626 3.96656
747 1 6.08418 10.8987 3.20316
748 1 6.10354 10.5882 4.21313
749 1 7.22197 10.9769 3.24848
750 1 7.26611 10.4836 3.94382
751 1 8.36557 10.9124 3.29869
752 1 8.40905 10.2646 4.14375
753 1 5.40236 12.066 2.40669
754 1 5.05309 11.9928 3.27143
755 1 6.09172 12.0602 3.1758
756 1 5.97726 11.6111 3.98367
757 1 7.29727 12.0518 3.25934
758 1 7.15746 11.6407 4.03134
759 1 8.34821 11.9733 3.28972
760 1 8.2744 11.4981 4.10688
761 1 4.99027 0.223408 4.0703
762 1 4.97384 12.5959 4.00114
763 1 6.07469 13.252 3.24983
764 1 6.25342 12.7413 3.96639
765 1 7.21173 13.1733 3.23753
766 1 7.43333 12.7322 4.04707
767 1 8.50041 13.0522 3.19933
768 1 8.44159 12.6141 4.08686
769 1 9.04536 9.10319 1.51537
770 1 9.7024 9.09509 0.692731
771 1 8.88346 9.63927 2.4356
772 1 9.47782 9.5854 12.9023
773 1 10.0222 8.97496 1.73032
774 1 10.0862 9.49083 12.2327
775 1 10.1035 9.6325 2.45364
776 1 10.6494 8.73166 0.713359
777 1 11.0762 8.82175 1.53856
778 1 11.768 9.36862 12.8723
779 1 11.2427 9.39133 2.43479
780 1 11.7633 8.74471 0.729533
781 1 12.2704 8.61713 1.63957
782 1 12.9823 9.13824 12.859
783 1 12.3077 9.20879 2.34504
784 1 12.74 8.66324 0.791394
785 1 9.00349 10.2511 1.75975
786 1 9.51082 10.7684 0.183048
787 1 8.93408 10.8225 2.54284
788 1 9.50691 10.1958 0.815475
789 1 10.0344 10.0487 1.59808
790 1 11.236 9.84731 1.58775
791 1 10.1794 10.6984 2.41851
792 1 10.7346 9.3561 12.9135
793 1 11.816 9.86088 0.907095
794 1 11.7826 10.3455 12.9201
795 1 11.7349 10.355 3.27991
796 1 12.9513 9.66934 0.678057
797 1 12.5409 9.83595 1.52229
798 1 12.8944 10.4341 0.0330861
799 1 12.3302 10.2165 2.40855
800 1 0.115532 9.55269 1.57631
801 1 8.89735 11.2581 1.62769
802 1 9.35032 11.897 0.0552541
803 1 8.9096 11.9045 2.3039
804 1 9.51126 11.4801 0.892179
805 1 10.036 11.1507 1.61092
806 1 10.4989 11.6252 0.0112253
807 1 9.91679 11.7565 2.45041
808 1 10.6455 9.88497 0.843021
809 1 10.6767 11.0714 0.871715
810 1 11.6848 10.9647 0.759144
811 1 11.2057 11.565 2.47555
812 1 11.2054 11.0828 1.67548
813 1 12.2959 10.8725 1.47354
814 1 12.7359 11.5171 0.0176494
815 1 12.4665 11.2628 2.35431
816 1 12.9018 10.9253 0.784635
817 1 8.85983 12.4647 1.60365
818 1 9.33977 12.8542 12.9474
819 1 9.07139 13.0365 2.43891
820 1 9.53407 12.521 0.887827
821 1 10.1552 12.1989 1.71174
822 1 10.6621 12.7538 0.10781
823 1 10.0703 12.9016 2.39151
824 1 10.7035 12.1411 0.805072
825 1 11.1868 12.1282 1.69891
826 1 13.3584 12.0138 11.3972
827 1 11.2999 12.7626 2.53383
828 1 11.774 12.1685 0.809595
829 1 12.3199 12.0362 1.6484
830 1 11.7691 12.7199 0.00237335
831 1 12.3617 12.4347 2.4646
832 1 12.9286 11.9896 0.92824
833 1 9.50881 9.55471 3.19663
834 1 10.1072 8.88482 4.94966
835 1 10.6417 9.40083 3.31282
836 1 10.7536 8.81857 4.03425
837 1 11.2453 10.4491 2.41697
838 1 11.7053 8.14341 3.19556
839 1 12.7593 9.10475 3.24275
840 1 12.9366 8.72634 4.06938
841 1 9.57285 10.7139 3.2086
842 1 9.44947 10.1984 4.02148
843 1 10.6576 10.6954 3.23029
844 1 10.6912 9.99804 4.02042
845 1 11.8845 9.71159 4.01452
846 1 11.7343 9.23059 3.19146
847 1 12.8705 10.2788 3.20238
848 1 12.9815 9.71464 3.92547
849 1 9.49413 11.9724 3.35932
850 1 9.47522 11.2741 4.0243
851 1 10.4561 11.7877 3.21985
852 1 10.5931 11.0614 4.13192
853 1 11.7893 11.4425 3.20176
854 1 11.77 10.8978 4.11532
855 1 12.7607 11.2878 3.41408
856 1 12.8456 10.8737 4.13506
857 1 9.59565 13.051 3.20302
858 1 9.46942 12.4465 4.10555
859 1 10.6181 12.7399 3.26054
860 1 10.7085 12.1858 4.11499
861 1 11.9435 12.6327 3.2691
862 1 11.7054 12.1194 3.9425
863 1 13.0526 12.201 3.26393
864 1 12.8238 12.0208 4.18202
865 1 0.0773028 13.1151 4.95541
866 1 13.3302 0.27989 5.81345
867 1 1.07051 13.2326 4.91493
868 1 1.08328 0.377201 5.59149
869 1 2.15118 12.7717 5.69765
870 1 2.26797 13.2044 4.7586
871 1 3.22379 13.4186 4.76337
872 1 3.32762 0.50528 5.68084
873 1 0.0566521 0.697725 4.85389
874 1 0.075689 1.31044 5.61373
875 1 1.1527 1.03383 4.98221
876 1 1.19302 1.42428 5.86281
877 1 2.28467 0.360383 5.58949
878 1 2.36841 1.54887 5.579
879 1 2.83229 1.05873 4.13723
880 1 3.3405 1.69103 5.65161
881 1 0.0700768 1.92828 4.85056
882 1 0.0649527 2.4415 5.71288
883 1 1.14544 2.13029 5.04005
884 1 0.928 2.55729 5.86797
885 1 2.04122 2.07666 4.88386
886 1 2.20575 2.48396 5.85819
887 1 3.44081 2.79006 5.54983
888 1 3.88639 2.90023 6.4628
889 1 13.2821 3.01731 4.8564
890 1 0.0405657 3.53991 5.59313
891 1 1.10458 3.06512 4.80825
892 1 1.09193 3.59883 5.59725
893 1 2.27057 3.10396 4.97561
894 1 2.1247 3.67952 5.76312
895 1 3.19647 3.4578 4.80957
896 1 3.30314 3.84017 5.63249
897 1 13.2714 13.155 8.26137
898 1 0.588568 0.196585 6.45256
899 1 0.394589 13.0778 7.29722
900 1 1.00222 13.2002 8.01704
901 1 1.65444 0.258618 6.48305
902 1 1.63466 13.2548 7.26937
903 1 2.33392 13.3621 8.10426
904 1 2.709 13.436 7.26589
905 1 3.38562 0.0849607 8.20075
906 1 3.21671 0.722409 8.90336
907 1 3.88217 0.618038 6.46393
908 1 3.82664 0.0805081 7.36115
909 1 0.085378 0.768591 8.07621
910 1 0.477859 1.53112 6.4858
911 1 0.643288 0.817736 7.10628
912 1 1.71284 0.933255 7.32127
913 1 1.72138 1.38381 6.51379
914 1 2.0597 1.00199 8.15106
915 1 2.84964 1.06929 7.33998
916 1 2.85321 1.55699 6.46714
917 1 2.71275 0.46252 6.47178
918 1 2.69412 0.523377 9.6245
919 1 3.98575 2.37978 7.25952
920 1 3.95587 1.10094 7.22416
921 1 13.4142 1.84016 8.11603
922 1 0.627609 1.9338 7.24756
923 1 1.10796 1.94254 8.17867
924 1 0.997904 0.849184 8.02217
925 1 1.54224 2.54389 6.53176
926 1 1.83183 2.04519 7.2755
927 1 2.15183 2.20176 8.24168
928 1 2.84577 2.75604 6.36514
929 1 2.84727 2.14913 7.34341
930 1 3.28051 1.84414 8.89283
931 1 3.18445 3.30483 7.88722
932 1 3.40607 2.27259 8.06481
933 1 0.0543468 3.05561 8.10663
934 1 0.477363 3.57572 6.51019
935 1 0.528619 2.89597 7.06763
936 1 0.964425 2.97557 7.89349
937 1 1.54097 3.67442 6.52575
938 1 1.88097 3.07109 7.34499
939 1 2.23381 3.12368 8.31265
940 1 2.7919 3.91862 6.36248
941 1 2.70195 3.38472 7.07779
942 1 3.30227 3.91272 8.8394
943 1 4.43687 4.19044 5.56191
944 1 3.9419 1.78195 6.51514
945 1 4.30183 0.204125 4.93438
946 1 4.44005 0.779511 5.69068
947 1 5.52334 0.344406 4.77829
948 1 5.62328 0.786035 5.60358
949 1 6.69486 0.333996 4.85675
950 1 6.70279 0.930246 5.73757
951 1 7.81649 0.355939 4.92535
952 1 8.49406 0.777633 6.35647
953 1 3.43958 1.00915 4.86877
954 1 3.85406 3.41498 4.02371
955 1 5.55576 1.39395 4.86831
956 1 5.69137 2.02061 5.72205
957 1 6.65344 1.44605 5.0217
958 1 6.60574 3.26487 5.73715
959 1 7.81399 1.42971 4.86059
960 1 7.90176 2.0327 5.76104
961 1 4.42379 1.84176 5.73122
962 1 5.05087 3.58203 7.35249
963 1 5.73343 2.49356 4.91877
964 1 4.99059 3.00954 6.57529
965 1 6.82125 2.67506 4.92698
966 1 6.77075 4.31881 5.66484
967 1 7.9685 2.5194 4.78841
968 1 7.77496 3.22321 5.61164
969 1 5.60277 3.80464 4.78016
970 1 4.00071 4.01146 6.45129
971 1 5.01251 4.7666 3.98586
972 1 5.60226 4.87366 4.8763
973 1 6.73057 3.77306 4.89277
974 1 6.70709 4.97839 4.89688
975 1 7.85583 4.46406 5.58266
976 1 8.41126 4.14732 6.4122
977 1 4.39636 0.308067 8.0588
978 1 5.01111 0.73155 6.32616
979 1 5.06162 0.293544 7.34428
980 1 5.54756 0.356078 8.15527
981 1 6.20466 1.03891 6.49464
982 1 6.08904 0.360879 7.21228
983 1 6.77267 13.2002 8.89651
984 1 7.85668 0.950453 5.75789
985 1 6.69097 0.295427 7.96134
986 1 7.77136 0.363038 8.16061
987 1 8.2503 0.2616 7.27698
988 1 8.38603 13.1074 6.47334
989 1 4.51689 1.38367 8.10863
990 1 5.19009 1.90143 6.44204
991 1 5.12126 1.326 7.25947
992 1 5.6644 1.47817 8.11838