data.lammps (converted from cfg to data.lammps)
    
2298  atoms
1  atom types
0.0   13.4375  xlo xhi
0.0   13.4375  ylo yhi
0.0   12.952  zlo zhi
0.0  0.0 0.0 xy xz yz
    
    
    
Atoms
  
1 1 0.00248388 13.0964 1.51673
2 1 0.622582 0.269619 0.0487452
3 1 13.319 0.919654 1.53901
4 1 1.27701 13.3316 1.48784
5 1 1.7825 13.3181 0.615303
6 1 2.18072 0.547093 12.1403
7 1 1.00837 0.452818 2.45225
8 1 1.6365 1.09848 0.806797
9 1 2.1491 0.154973 1.65909
10 1 2.7987 1.05415 0.771684
11 1 2.27129 0.550125 2.48759
12 1 2.71403 13.4226 0.757978
13 1 3.37252 0.180535 1.53796
14 1 4.01734 0.8872 12.8815
15 1 3.21144 0.71306 2.28467
16 1 3.95284 0.361135 0.890235
17 1 12.819 0.77124 0.757082
18 1 1.09305 2.02263 11.3385
19 1 0.215723 1.36322 2.56152
20 1 0.55119 0.966266 0.739857
21 1 1.16913 0.964055 1.50807
22 1 0.608936 1.46828 12.8792
23 1 1.10385 1.96626 1.62531
24 1 1.83661 1.59397 0.0120686
25 1 2.28678 1.23793 1.54857
26 1 2.26794 1.54127 11.9255
27 1 2.30687 1.70405 2.38994
28 1 2.78734 1.79682 3.35457
29 1 3.47303 1.40411 1.764
30 1 3.79104 1.32843 0.73329
31 1 5.09658 2.14467 3.2512
32 1 5.62775 1.45159 1.64203
33 1 12.8543 1.89035 0.764444
34 1 0.588572 2.6726 12.8503
35 1 0.00165858 2.42743 2.46449
36 1 0.0320877 1.9121 1.67997
37 1 2.30405 2.19813 1.46137
38 1 1.85073 2.6635 12.9325
39 1 1.29348 2.57573 2.28314
40 1 2.90911 2.25669 0.755142
41 1 2.73127 1.7747 0.0251762
42 1 2.79786 3.01267 0.0503284
43 1 2.23678 2.80644 2.42083
44 1 3.42564 2.5058 1.62647
45 1 3.37425 1.96998 2.50101
46 1 3.92886 3.05815 12.926
47 1 2.80834 2.88882 3.32054
48 1 3.92695 2.56209 0.712756
49 1 13.4086 2.95848 1.60307
50 1 0.63935 3.167 0.897142
51 1 0.00320354 3.57854 2.37057
52 1 1.03998 3.2857 1.79318
53 1 0.549844 2.15126 0.621468
54 1 1.74158 3.73127 0.00529211
55 1 1.13347 3.89905 2.47632
56 1 1.65453 3.27691 0.842828
57 1 2.11903 3.28734 1.62747
58 1 3.00542 4.01126 0.0303285
59 1 2.17173 3.87856 2.45759
60 1 2.83881 3.41968 0.83827
61 1 3.41923 3.56618 1.48171
62 1 3.99743 4.2244 0.0216503
63 1 3.28154 3.98954 2.40888
64 1 4.1587 3.76039 0.817506
65 1 0.00800402 0.345489 2.2196
66 1 0.485337 0.353615 3.39322
67 1 1.5753 0.481873 3.21075
68 1 1.71085 13.4139 4.01051
69 1 2.76005 0.8874 3.37884
70 1 2.76397 0.140146 3.9296
71 1 3.73569 0.819057 3.10399
72 1 3.96082 0.333384 4.01515
73 1 0.670238 1.52431 3.31593
74 1 0.709693 0.947279 4.10045
75 1 1.29625 1.43676 2.36869
76 1 1.77321 1.12845 4.01464
77 1 1.69127 1.66918 3.28253
78 1 2.37943 1.12623 4.63553
79 1 3.97848 2.4679 4.04847
80 1 4.5042 2.26676 2.47664
81 1 0.64368 2.57243 3.09871
82 1 0.49593 2.11709 4.1217
83 1 1.63846 2.79659 3.22528
84 1 1.6849 2.19315 4.11226
85 1 2.85848 2.33735 4.06333
86 1 3.38711 2.47873 4.88266
87 1 3.29152 3.06718 2.38497
88 1 4.56785 2.61455 4.77679
89 1 0.549576 3.6534 3.22972
90 1 0.375249 3.13715 4.02261
91 1 1.71108 3.72673 3.22961
92 1 1.53138 3.25034 4.13164
93 1 2.74208 4.07172 3.25393
94 1 2.7652 3.43596 4.06024
95 1 3.81853 4.1681 3.26561
96 1 3.88721 3.06718 3.22132
97 1 4.51735 0.45974 1.72934
98 1 5.05067 0.939714 12.942
99 1 4.35929 1.47653 1.54874
100 1 5.03463 0.454705 0.875123
101 1 5.66459 0.349555 1.63579
102 1 6.19748 0.816585 12.9385
103 1 5.48067 0.865687 2.49005
104 1 6.25684 0.381276 0.835633
105 1 6.73639 0.293742 1.63725
106 1 7.3997 0.663555 12.9227
107 1 6.68494 0.800992 2.48492
108 1 7.83064 0.360435 1.67038
109 1 7.22512 0.294133 0.86469
110 1 7.81295 1.34303 11.2159
111 1 7.83163 0.705193 2.62123
112 1 8.28079 13.3513 0.881773
113 1 5.07678 1.44809 0.939813
114 1 4.50569 2.04301 12.0914
115 1 4.07727 1.9028 3.14574
116 1 6.10269 1.57858 0.824097
117 1 6.12354 1.98849 0.0434422
118 1 6.1314 2.64387 0.922362
119 1 5.48833 2.13879 2.2083
120 1 5.12006 2.08084 0.00849154
121 1 6.7487 1.42593 1.71784
122 1 6.69373 2.03864 12.1334
123 1 6.68213 2.03628 2.3921
124 1 7.21727 1.42314 0.730547
125 1 7.75083 1.27166 1.62664
126 1 8.40555 1.66211 0.09711
127 1 7.77421 1.78709 2.42846
128 1 7.7741 1.80568 12.2125
129 1 4.38018 2.58374 1.54798
130 1 5.27398 3.13677 12.9396
131 1 4.43237 3.28075 2.44324
132 1 4.93719 2.69535 0.842897
133 1 5.55305 2.75911 1.54295
134 1 6.33665 2.96344 0.0658109
135 1 5.52617 3.26705 2.43877
136 1 6.74506 2.54948 1.57305
137 1 7.76077 2.95973 2.31751
138 1 7.80179 2.93437 12.0868
139 1 6.64385 3.154 2.41691
140 1 7.2113 1.90267 12.9151
141 1 7.33454 2.48054 0.862257
142 1 8.34489 2.85132 12.8694
143 1 7.76872 3.56689 1.63382
144 1 7.82751 2.31147 1.55954
145 1 4.52111 3.72682 1.69406
146 1 5.09174 4.32616 12.8234
147 1 4.41134 4.40063 2.41743
148 1 5.17522 3.87004 0.67056
149 1 5.57207 3.7992 1.60172
150 1 6.22726 4.2724 12.8353
151 1 5.64285 4.40883 2.44864
152 1 6.24814 3.79069 0.724339
153 1 7.34643 4.23812 12.9241
154 1 6.77884 4.29926 12.1079
155 1 6.72957 3.6654 1.64286
156 1 7.25517 3.61212 0.777751
157 1 7.79782 4.1219 2.4926
158 1 8.39568 3.93861 12.9048
159 1 8.35061 3.83004 3.22913
160 1 8.49982 3.32577 0.854902
161 1 4.52508 1.10073 2.73976
162 1 4.83613 13.2967 3.31562
163 1 6.11475 1.00835 3.25006
164 1 6.02743 0.379225 4.11743
165 1 7.18566 0.874072 3.30196
166 1 7.31005 0.237437 4.01934
167 1 8.55305 0.516998 3.29942
168 1 8.36482 0.0114358 4.11578
169 1 4.92593 1.50923 3.94927
170 1 4.44033 1.53072 4.88872
171 1 5.95459 1.9853 3.09868
172 1 6.24087 1.54287 4.13405
173 1 7.23283 1.95279 3.2093
174 1 7.28876 1.37869 4.09047
175 1 8.35501 1.50055 3.33592
176 1 8.31023 1.09008 4.20263
177 1 5.00391 3.30069 3.27127
178 1 5.07897 2.66201 3.9588
179 1 6.07962 3.03169 3.18121
180 1 6.19006 2.55755 4.10362
181 1 7.15439 2.98626 3.17162
182 1 7.18488 2.43024 4.06207
183 1 8.26113 2.65108 3.19819
184 1 8.37629 2.18951 4.03593
185 1 5.04084 3.7955 4.05936
186 1 4.51173 3.67051 4.91461
187 1 6.60808 4.29882 2.4812
188 1 6.14002 3.64541 4.05114
189 1 7.22071 4.12865 3.2272
190 1 7.27696 3.48481 4.02402
191 1 8.31361 4.97476 3.24511
192 1 7.81338 3.48214 4.81347
193 1 8.951 13.4009 1.45811
194 1 8.93942 0.501191 12.0376
195 1 8.93134 0.5186 2.36992
196 1 9.57511 13.245 0.852001
197 1 10.2032 13.1898 1.60218
198 1 10.5483 0.395561 12.9211
199 1 9.92233 0.337784 2.35112
200 1 10.6569 13.2375 0.725296
201 1 11.2572 13.0981 1.63396
202 1 11.0927 0.0772398 12.0891
203 1 11.0513 0.0993253 2.52845
204 1 11.8083 13.0205 0.743332
205 1 12.2894 13.0064 1.69185
206 1 11.6422 0.326925 12.9107
207 1 12.319 0.218803 2.41258
208 1 12.8192 13.1824 0.89221
209 1 8.21921 1.14931 0.785802
210 1 9.51418 2.09805 0.797093
211 1 8.91428 1.17257 1.76443
212 1 9.47032 0.550486 0.0208361
213 1 9.35986 0.944154 0.793964
214 1 10.1811 2.48063 12.1704
215 1 10.0771 1.40488 2.54447
216 1 10.5375 0.813803 0.78848
217 1 11.1172 0.676313 1.73561
218 1 11.6561 1.84529 0.929407
219 1 11.1593 1.33107 2.39902
220 1 11.7424 0.678931 0.896394
221 1 12.2044 0.731031 1.72723
222 1 12.2727 0.244358 12.3339
223 1 12.4108 1.483 2.40963
224 1 0.606887 13.1841 0.819141
225 1 9.01625 2.15351 1.58192
226 1 9.08614 2.73192 12.2373
227 1 9.64921 2.6934 3.21329
228 1 10.0715 1.95522 1.74495
229 1 10.0135 0.947682 1.52935
230 1 10.0853 2.00246 11.4044
231 1 10.1628 2.49211 2.47267
232 1 10.5191 2.05543 0.819487
233 1 11.1124 1.88908 1.56465
234 1 12.2979 2.35539 12.2196
235 1 11.2327 2.46356 2.33771
236 1 11.6402 2.4265 0.0356917
237 1 12.3132 1.90454 1.58159
238 1 11.6835 3.49552 0.0175998
239 1 12.2769 2.59192 2.55114
240 1 12.7964 1.30468 0.0588785
241 1 8.88375 2.66187 2.52235
242 1 9.47633 4.36519 0.993421
243 1 8.92036 3.19974 1.6843
244 1 9.55956 3.36939 0.696606
245 1 9.92592 3.09448 1.51177
246 1 10.473 3.76951 0.0333565
247 1 9.89528 3.57032 2.42
248 1 9.97597 3.11758 11.347
249 1 11.1878 3.21743 1.75278
250 1 12.2948 3.49509 12.2832
251 1 11.1431 4.19 1.72242
252 1 11.7422 4.11338 0.657345
253 1 12.2862 2.93863 1.68116
254 1 12.9092 2.96189 0.765016
255 1 12.3818 3.69275 2.42746
256 1 12.9582 2.42278 12.9006
257 1 9.64597 0.521265 3.28841
258 1 9.5179 13.2243 4.22257
259 1 10.4843 0.239177 3.28512
260 1 10.6666 13.0306 3.98608
261 1 11.7472 0.273557 3.16429
262 1 11.6555 13.0896 3.87827
263 1 12.9833 0.340301 3.1341
264 1 12.8015 13.2548 4.13973
265 1 8.91911 1.67412 2.49796
266 1 9.46599 0.927835 4.10521
267 1 10.6818 1.41096 3.28408
268 1 10.7065 0.815947 4.06484
269 1 11.838 1.33323 3.13868
270 1 11.7735 0.721447 3.95092
271 1 13.0028 1.2818 3.2563
272 1 12.7716 0.894971 4.07405
273 1 9.38724 2.05341 3.9519
274 1 9.42506 1.47544 3.28954
275 1 10.6659 2.44392 3.29614
276 1 10.5608 1.93105 4.18223
277 1 11.6346 2.41777 3.23479
278 1 11.9761 1.86316 4.03325
279 1 12.9159 2.47337 3.24317
280 1 12.9313 1.8968 3.96617
281 1 9.45793 3.73988 3.30899
282 1 9.31713 3.14632 4.06865
283 1 12.8343 3.74402 3.23405
284 1 10.5942 3.05461 4.14368
285 1 10.9638 3.56951 2.60895
286 1 11.7584 2.99065 3.93119
287 1 11.8113 3.59671 3.07838
288 1 12.822 3.08031 3.95404
289 1 0.0398922 4.31725 1.71308
290 1 0.66424 4.68453 0.0412291
291 1 0.120293 4.77305 2.45298
292 1 0.552125 4.17519 0.885153
293 1 1.18303 4.44374 1.54907
294 1 1.71597 5.0446 12.9306
295 1 1.24294 4.97333 2.5615
296 1 1.77812 4.35876 0.69584
297 1 2.20285 4.42446 1.54444
298 1 2.83596 5.07955 12.9506
299 1 2.26056 4.9312 2.4442
300 1 2.91634 4.48899 0.943613
301 1 3.37538 4.68871 1.74419
302 1 4.02179 5.33901 0.0296167
303 1 3.29978 5.17561 2.5088
304 1 3.97579 4.81858 0.890813
305 1 0.0809811 5.55982 1.73217
306 1 0.511789 5.96087 0.0676701
307 1 13.3737 5.93834 2.52371
308 1 0.764923 5.31776 0.836462
309 1 1.11045 5.51713 1.54947
310 1 1.88472 6.25043 0.00969556
311 1 1.25394 6.03426 2.48659
312 1 1.72452 5.55665 0.758026
313 1 2.28334 5.57648 1.61011
314 1 2.86854 6.2399 0.131345
315 1 2.21786 6.11703 2.37102
316 1 2.83709 5.55831 0.797067
317 1 3.41614 5.87501 1.68968
318 1 3.98656 6.56451 0.0407562
319 1 3.30658 6.39551 2.47263
320 1 3.91519 5.91453 0.800419
321 1 13.3802 6.59009 1.72043
322 1 0.601637 7.05603 12.9474
323 1 0.130479 7.13726 2.55263
324 1 0.549622 6.52981 0.893868
325 1 1.04539 6.56777 1.69924
326 1 1.70185 7.33163 0.0325173
327 1 1.24411 7.1866 2.41901
328 1 1.6123 6.57373 0.824735
329 1 2.1572 6.73973 1.61842
330 1 2.80622 7.33188 0.0846424
331 1 2.46751 7.20286 2.4026
332 1 2.80332 6.76128 0.964076
333 1 3.35971 6.9355 1.62254
334 1 3.90377 7.69124 0.139317
335 1 3.48862 7.54458 2.39771
336 1 4.01469 7.07355 0.819353
337 1 0.0516538 7.59856 1.69688
338 1 0.660815 8.30304 0.0674762
339 1 13.3199 8.14972 2.54616
340 1 0.640939 7.71185 0.830139
341 1 1.1159 7.80075 1.71238
342 1 1.68873 8.39922 12.9286
343 1 1.05485 8.31062 2.60058
344 1 1.67903 7.67483 0.942494
345 1 2.24961 7.98533 1.7193
346 1 2.73327 8.33817 0.159405
347 1 2.22096 8.40229 2.44729
348 1 2.84983 7.79585 0.949984
349 1 3.39791 8.1682 1.65336
350 1 3.86762 8.75635 12.8942
351 1 2.72236 9.64704 3.09965
352 1 4.00184 8.18181 0.904461
353 1 0.627707 4.769 3.39124
354 1 0.776706 4.28135 4.09167
355 1 1.65338 4.89773 3.3759
356 1 1.79913 4.34246 4.06961
357 1 2.71588 5.17079 3.26328
358 1 2.7665 4.64153 4.14059
359 1 3.99805 5.3197 3.22237
360 1 3.82488 4.77867 4.08726
361 1 0.617894 5.93032 3.14573
362 1 0.426313 5.47749 4.09692
363 1 1.63892 6.12972 3.40026
364 1 1.62517 5.48207 4.17977
365 1 2.70517 6.24888 3.30554
366 1 2.80227 5.69676 4.07299
367 1 3.8757 6.37303 3.18444
368 1 3.90345 5.86967 4.01836
369 1 0.634856 7.04258 3.29119
370 1 0.616721 6.43897 3.99016
371 1 1.90499 7.18861 3.20763
372 1 1.75068 6.68443 4.1606
373 1 2.95743 7.50255 3.30782
374 1 2.98785 6.76252 4.02209
375 1 5.14238 7.64274 3.21024
376 1 3.50528 7.06557 4.81528
377 1 0.605377 8.16751 3.37482
378 1 0.752176 7.62969 4.06417
379 1 1.74956 8.24573 3.29587
380 1 1.80196 7.6653 4.0916
381 1 3.98161 8.75063 3.22195
382 1 2.82615 7.9675 4.14423
383 1 3.9899 7.51879 3.36454
384 1 3.96694 8.13823 4.05758
385 1 4.50984 4.87213 1.59675
386 1 5.07294 5.50137 12.9412
387 1 4.42037 5.44564 2.40596
388 1 5.06728 4.98408 0.681185
389 1 5.53458 5.47977 2.38797
390 1 6.28379 4.85415 0.730591
391 1 6.07302 5.49021 3.33417
392 1 5.67018 4.79799 1.49694
393 1 6.8039 4.7945 1.72532
394 1 6.73639 5.37685 12.0601
395 1 6.63208 5.37253 2.46041
396 1 7.3666 4.71953 0.824893
397 1 7.82315 4.70404 1.57845
398 1 8.56999 5.05869 0.0713154
399 1 7.83914 5.16124 2.41643
400 1 8.47359 4.40531 0.765033
401 1 4.47477 5.98029 1.64933
402 1 5.10526 6.6247 12.9508
403 1 4.46165 6.60817 2.55535
404 1 4.97411 6.10053 0.821135
405 1 5.59196 5.99595 1.63255
406 1 6.24505 6.55485 0.0600982
407 1 6.27482 6.51664 3.31607
408 1 6.09525 6.02355 0.860869
409 1 6.81902 5.82185 1.55747
410 1 7.31175 5.92629 0.846692
411 1 6.71858 6.41076 2.31959
412 1 7.25081 5.28381 0.106042
413 1 7.90969 5.74338 1.64161
414 1 8.50649 6.18927 12.9037
415 1 7.82557 6.26858 2.4223
416 1 8.51669 5.54431 0.794718
417 1 4.51446 7.0877 1.70169
418 1 5.08818 7.75127 0.14901
419 1 4.43794 7.74606 2.55623
420 1 5.1167 7.24971 0.840095
421 1 5.68791 6.51142 2.47818
422 1 6.13302 7.64403 12.8946
423 1 5.62714 7.13394 1.6857
424 1 6.22406 7.07638 0.850535
425 1 6.77675 7.00083 1.58468
426 1 7.21854 7.5682 12.8578
427 1 6.73236 7.62506 2.39238
428 1 7.31128 7.03643 0.768631
429 1 7.85012 6.86271 1.59781
430 1 8.35415 6.66331 0.80696
431 1 7.97371 7.41618 2.39652
432 1 8.88449 6.84035 1.5261
433 1 4.61722 8.19834 1.63164
434 1 4.98832 8.8768 12.8483
435 1 4.49479 8.80678 2.35267
436 1 5.08976 8.56538 0.78292
437 1 5.66168 7.77451 2.37349
438 1 6.1407 8.7552 12.913
439 1 5.72683 8.28464 1.53679
440 1 6.23144 8.13706 0.775256
441 1 6.799 8.16254 1.53486
442 1 7.30773 8.68588 12.8074
443 1 6.75202 8.7585 2.4865
444 1 7.27467 8.11448 0.710474
445 1 7.84477 7.97595 1.59979
446 1 8.36488 7.96231 0.775291
447 1 7.81174 9.23882 1.67368
448 1 8.51912 7.27568 0.0504238
449 1 5.09203 5.6137 3.33584
450 1 4.99887 4.39582 3.13701
451 1 6.18007 5.97837 4.19298
452 1 6.06041 4.25345 3.33997
453 1 7.07277 5.24448 3.26997
454 1 7.29058 4.6644 4.03425
455 1 8.45196 5.58711 4.04571
456 1 8.40666 3.36241 3.97431
457 1 4.86185 5.99807 4.15909
458 1 4.45952 5.3015 5.74496
459 1 6.13634 7.01261 4.16088
460 1 6.17901 7.54649 3.17406
461 1 7.26429 6.48945 3.3035
462 1 8.57552 6.12465 6.60584
463 1 8.31039 6.16304 3.3186
464 1 7.85962 6.15089 5.67537
465 1 5.06118 8.10373 4.10783
466 1 5.1029 6.63224 3.26555
467 1 6.12943 8.71399 3.199
468 1 5.10715 7.05074 4.08307
469 1 6.16685 8.04789 4.02516
470 1 7.27592 7.47391 3.13883
471 1 8.41115 7.31438 3.23992
472 1 8.46721 6.78678 4.04435
473 1 5.06607 8.67869 3.22888
474 1 4.55803 8.20502 4.98793
475 1 5.70324 8.1951 4.88311
476 1 6.77394 8.19373 4.85243
477 1 7.28416 8.662 3.21836
478 1 6.70112 9.22866 4.79874
479 1 7.78862 8.56387 2.31663
480 1 8.38136 7.89762 4.05553
481 1 8.88191 3.77416 2.34603
482 1 9.57454 5.10089 0.230035
483 1 8.84757 4.47205 1.70444
484 1 10.1734 4.1925 1.62185
485 1 10.7814 3.02305 1.0168
486 1 10.0073 4.904 12.2561
487 1 10.1321 4.82821 2.43729
488 1 10.7186 4.90102 12.9314
489 1 10.6775 4.19456 0.746644
490 1 12.4185 4.64571 12.1664
491 1 11.4498 4.49226 2.52462
492 1 11.8667 4.68893 0.0123009
493 1 12.1776 4.15165 1.57255
494 1 12.9637 4.63189 0.144469
495 1 12.5022 4.88237 2.55938
496 1 12.9632 3.96873 1.0475
497 1 8.97915 5.007 2.45847
498 1 9.58313 6.05405 0.051381
499 1 9.46765 5.96184 3.22724
500 1 9.02778 5.66895 1.46751
501 1 9.82944 5.24736 1.3345
502 1 10.7679 5.8824 12.8615
503 1 10.0583 5.80182 2.24518
504 1 10.6395 5.34025 0.951476
505 1 11.1482 5.24267 1.60767
506 1 11.2292 5.82329 12.0703
507 1 11.0855 5.66518 2.41241
508 1 11.8272 5.19621 0.917902
509 1 12.4847 5.19369 1.60561
510 1 12.7752 5.77282 0.0392764
511 1 12.0894 5.73394 2.50419
512 1 13.077 5.23596 0.850772
513 1 8.96424 6.05671 2.48347
514 1 9.56878 7.33122 0.0107788
515 1 9.01052 7.05977 2.48874
516 1 9.57369 6.56196 0.747064
517 1 10.0012 6.43074 1.63449
518 1 10.6463 6.90335 12.9406
519 1 10.0754 6.93579 2.34596
520 1 10.7105 6.43021 0.877169
521 1 11.2429 6.42529 1.724
522 1 11.8689 6.86108 12.9236
523 1 11.1173 6.95311 2.41354
524 1 12.8491 6.38072 0.834026
525 1 12.2823 6.31356 1.56793
526 1 12.4121 6.8797 12.0956
527 1 12.3677 6.75494 2.33881
528 1 13.0156 6.97502 0.126036
529 1 8.94028 7.84307 1.64062
530 1 10.2053 8.2397 12.1094
531 1 8.40392 8.31306 3.15328
532 1 9.44687 7.68874 0.860691
533 1 10.1852 7.61891 1.55477
534 1 10.7795 8.03123 0.0919639
535 1 10.0807 8.07642 2.40494
536 1 10.6045 7.53704 0.806265
537 1 11.4031 7.54138 1.53805
538 1 11.878 7.47453 0.75655
539 1 11.1611 7.98089 2.42797
540 1 11.6774 6.40666 0.826797
541 1 12.3026 7.56805 1.79285
542 1 13.0024 8.05167 0.0593805
543 1 13.005 8.1825 3.41417
544 1 12.9306 7.51707 0.910887
545 1 9.46543 4.82988 3.18987
546 1 9.58842 4.37509 4.02258
547 1 10.6552 4.81178 3.13901
548 1 10.4898 3.72204 3.32136
549 1 11.7975 4.78539 3.29685
550 1 11.7594 4.10444 4.02612
551 1 13.0178 4.7542 3.32903
552 1 12.8296 4.23436 4.21313
553 1 9.48959 6.57927 4.02996
554 1 9.60554 5.4524 3.94476
555 1 10.4623 5.93349 3.1813
556 1 10.6978 5.33553 3.98582
557 1 11.6848 5.90506 3.319
558 1 11.8297 5.25362 4.14147
559 1 12.8692 5.86071 3.18754
560 1 12.8301 5.32318 4.02758
561 1 9.53588 8.23325 3.1752
562 1 9.62097 7.2053 3.28293
563 1 10.6214 6.9003 3.25095
564 1 10.6633 6.50101 4.1103
565 1 11.8361 6.86131 3.18937
566 1 11.8498 6.39082 4.1367
567 1 12.9149 6.99199 3.2872
568 1 12.9329 6.398 4.06614
569 1 9.0382 8.39872 2.37619
570 1 8.92206 7.7988 4.88069
571 1 10.6892 8.14416 3.2914
572 1 10.709 7.54389 4.03557
573 1 12.3249 8.14034 2.39787
574 1 11.7087 8.54461 4.03159
575 1 12.8919 7.50476 4.10361
576 1 12.3606 7.54698 4.99622
577 1 0.112047 8.7096 1.58079
578 1 0.547894 9.45766 0.0351021
579 1 0.469459 9.27026 3.3199
580 1 0.53216 8.73466 0.85076
581 1 1.17078 8.81904 1.62606
582 1 1.71331 9.47709 0.0594325
583 1 1.07142 9.41582 2.49013
584 1 1.68747 8.83627 0.890065
585 1 2.20546 9.10211 1.7157
586 1 2.80341 9.55731 0.0896192
587 1 2.07365 9.75463 2.56451
588 1 2.79997 9.03621 0.765793
589 1 3.252 9.20383 1.60389
590 1 3.8283 9.85243 12.9248
591 1 3.42292 8.7294 2.4679
592 1 4.00427 9.25114 0.818657
593 1 13.3992 9.17338 2.31771
594 1 0.66654 10.3821 12.8999
595 1 13.3522 10.4136 2.44272
596 1 0.544604 9.84602 0.870782
597 1 1.1231 9.8811 1.62401
598 1 1.62609 10.6098 0.0904824
599 1 1.0965 10.483 2.47418
600 1 1.65305 9.96393 0.756367
601 1 2.2023 10.1163 1.59448
602 1 2.7215 10.7477 12.9393
603 1 2.15724 10.7594 2.48506
604 1 2.75376 10.2206 0.84568
605 1 3.45582 10.3877 1.6674
606 1 3.93595 10.9005 0.154886
607 1 3.25944 10.9728 2.48173
608 1 3.92104 10.3106 0.807618
609 1 13.3645 11.0252 1.68661
610 1 0.574178 11.452 12.7861
611 1 13.433 11.5743 2.52335
612 1 0.429194 10.8636 0.849344
613 1 1.10255 11.0213 1.56116
614 1 2.25535 11.6333 11.9704
615 1 0.985383 11.5567 2.32295
616 1 1.65038 11.1905 0.86859
617 1 2.27315 11.1974 1.63228
618 1 2.84621 12.3227 0.885963
619 1 2.1816 11.8909 2.35488
620 1 2.80247 11.2244 0.784209
621 1 3.44148 11.4188 1.58887
622 1 3.9576 12.1371 0.0194074
623 1 3.31855 11.9518 2.47702
624 1 3.99134 11.5294 0.765084
625 1 13.3888 12.0221 1.55803
626 1 0.571315 12.4785 0.0677048
627 1 13.3176 12.597 2.42818
628 1 0.66785 11.9235 0.736708
629 1 1.06477 12.1942 1.79668
630 1 1.62428 0.50584 0.0485185
631 1 1.01969 12.8771 2.35083
632 1 1.57223 12.2811 0.889082
633 1 2.2252 12.428 1.48699
634 1 1.70164 12.6663 12.8253
635 1 2.22929 12.889 2.45657
636 1 2.9108 13.0092 0.0112815
637 1 3.46464 12.4682 1.68263
638 1 3.87306 13.2591 0.0557097
639 1 3.27281 13.0874 2.34421
640 1 4.00198 12.732 0.847074
641 1 0.559257 9.96412 3.95318
642 1 0.53845 8.79345 4.07296
643 1 1.49585 9.2816 3.30759
644 1 1.61595 8.88173 4.07713
645 1 2.87842 8.57931 3.19198
646 1 2.78112 8.96502 4.06934
647 1 3.26804 9.77848 2.31406
648 1 3.81562 9.88516 3.25752
649 1 0.474223 10.4666 3.194
650 1 13.366 9.67214 4.85506
651 1 1.66214 10.6628 3.31536
652 1 1.69759 10.0345 4.01078
653 1 2.7945 10.7907 3.31659
654 1 2.8713 10.006 3.95369
655 1 3.89329 10.901 3.29785
656 1 3.90595 10.2829 4.23828
657 1 0.646023 11.5404 3.24957
658 1 0.449808 10.9931 4.17575
659 1 1.64394 11.7328 3.15548
660 1 1.52196 11.3175 4.04337
661 1 2.80368 11.8359 3.27803
662 1 2.6301 11.2997 4.07185
663 1 3.94516 12.0695 3.33708
664 1 3.86926 11.5283 4.07807
665 1 0.598158 13.1861 4.06046
666 1 0.44623 12.7038 3.1513
667 1 1.56149 12.7404 3.1749
668 1 1.75245 12.3448 4.00521
669 1 2.85226 13.0451 3.23029
670 1 2.76451 12.4409 3.98765
671 1 3.93997 13.1837 3.08532
672 1 3.93353 12.659 4.10966
673 1 4.40413 9.41367 1.60387
674 1 4.98846 9.94075 12.8087
675 1 4.39795 9.82785 2.52743
676 1 5.09065 9.67449 0.731332
677 1 5.55099 9.39699 1.6818
678 1 6.07376 10.9183 12.8154
679 1 5.65438 9.81904 2.48441
680 1 6.12112 9.32151 0.787672
681 1 6.67482 9.29544 1.70928
682 1 7.37215 9.74019 12.9314
683 1 6.76034 9.9384 2.47366
684 1 7.15989 9.20811 0.83032
685 1 8.28946 9.01539 0.878381
686 1 8.46987 9.45672 0.0359193
687 1 7.79203 10.3197 1.58439
688 1 8.41923 8.45082 12.8925
689 1 4.56493 10.4411 1.70621
690 1 5.01029 10.9983 12.9195
691 1 4.35888 11.1615 2.49316
692 1 5.07361 10.6487 0.884252
693 1 5.56738 10.5594 1.81945
694 1 5.49897 11.2635 11.9916
695 1 5.48523 11.1754 2.49572
696 1 6.20032 9.80466 12.8776
697 1 6.12 10.4539 0.824506
698 1 7.34104 10.8342 0.0430734
699 1 6.70074 10.9835 2.29956
700 1 6.58759 10.3837 1.59108
701 1 7.16739 10.297 0.76481
702 1 8.54445 10.6819 0.0864321
703 1 7.86772 10.8463 2.58629
704 1 8.32085 10.0866 0.706376
705 1 4.51433 11.5179 1.60269
706 1 5.00488 12.1765 12.9244
707 1 4.43382 12.2533 2.45442
708 1 5.08535 11.6416 0.831897
709 1 5.64433 11.6739 1.63006
710 1 6.0488 12.0134 0.0688974
711 1 5.53042 12.2941 2.50253
712 1 6.17391 11.4488 0.834026
713 1 6.72872 11.653 1.59771
714 1 7.24925 12.0262 0.0506704
715 1 6.78869 12.04 2.51166
716 1 7.24323 11.3445 0.743616
717 1 7.86243 11.3008 1.66659
718 1 8.38851 11.7333 12.9024
719 1 7.88167 11.9523 2.43485
720 1 8.37937 11.2704 0.894312
721 1 4.57427 12.6054 1.65372
722 1 5.01629 13.3571 0.0127616
723 1 4.46632 13.3751 2.33515
724 1 5.00554 12.8192 0.743323
725 1 5.64832 12.7519 1.62827
726 1 6.1458 13.199 0.150553
727 1 5.54669 13.326 2.56323
728 1 6.24501 12.6338 0.791089
729 1 6.77195 12.6525 1.58944
730 1 7.51706 13.1163 12.8429
731 1 6.65139 13.1206 2.4709
732 1 7.30339 12.6521 0.774391
733 1 7.85473 12.4523 1.58921
734 1 8.60705 12.8716 0.00449783
735 1 7.87916 13.0855 2.38652
736 1 8.32417 12.2346 0.821697
737 1 5.04655 10.0016 3.22094
738 1 4.99882 9.25426 3.95523
739 1 6.09383 9.81088 3.25953
740 1 6.15278 9.24274 3.99752
741 1 7.98221 9.76701 2.39634
742 1 7.23964 9.15096 4.01853
743 1 8.36038 9.36707 3.24839
744 1 8.88908 8.85084 4.86275
745 1 4.99358 11.091 3.30224
746 1 5.00552 10.4852 4.00831
747 1 6.12449 10.9713 3.16482
748 1 6.13074 10.4998 3.99788
749 1 7.11825 10.9241 3.25065
750 1 7.20904 10.3606 3.91399
751 1 8.33118 10.7092 3.24084
752 1 8.34083 10.1868 4.00415
753 1 5.0263 12.1628 3.24356
754 1 5.0031 11.7014 4.06614
755 1 6.16444 11.954 3.18201
756 1 6.09517 11.5216 4.13463
757 1 7.2579 11.9216 3.38564
758 1 7.27271 11.5102 4.19331
759 1 8.40802 11.8869 3.26301
760 1 8.38636 11.3679 4.02236
761 1 5.14535 0.700827 3.64177
762 1 5.02244 12.8305 4.12638
763 1 6.10307 13.2894 3.35062
764 1 6.20607 12.6218 3.88907
765 1 7.29741 13.1065 3.17491
766 1 7.30706 12.6157 4.09524
767 1 8.36581 12.8594 3.17082
768 1 8.53264 12.4189 4.18034
769 1 8.89216 8.92755 1.59843
770 1 9.49339 8.72873 0.82867
771 1 8.98766 9.47134 2.44605
772 1 9.52748 9.47301 0.041314
773 1 10.0439 8.76233 1.61059
774 1 10.1013 9.34421 12.0905
775 1 9.96352 9.22815 2.38708
776 1 10.5521 8.68986 0.691606
777 1 11.097 8.6028 1.59468
778 1 11.823 9.16076 0.109561
779 1 11.2058 9.16081 2.39413
780 1 11.643 8.67075 0.818902
781 1 12.2308 8.67569 1.65653
782 1 12.915 9.09781 0.0308894
783 1 12.2988 9.30214 2.51683
784 1 12.7306 8.64876 0.995572
785 1 8.86754 10.0578 1.5979
786 1 9.61368 10.4977 0.000142087
787 1 8.95596 10.5472 2.49026
788 1 9.46751 9.85638 0.931189
789 1 10.0678 9.93911 1.5747
790 1 11.1502 9.67887 1.59675
791 1 10.0265 10.4534 2.44332
792 1 10.6521 9.27416 12.8173
793 1 11.7518 9.78785 0.888598
794 1 11.7406 10.2048 0.0981532
795 1 11.615 10.308 3.28851
796 1 12.872 9.75409 0.733377
797 1 12.3845 9.78081 1.53745
798 1 12.8052 10.2631 12.7628
799 1 12.2405 10.3174 2.4666
800 1 13.3863 9.83964 1.72469
801 1 8.96285 11.0718 1.66407
802 1 9.70835 11.5956 12.9188
803 1 8.94708 11.8046 2.36702
804 1 9.49388 10.9972 0.850897
805 1 10.0996 11.1136 1.57266
806 1 10.7051 11.5144 0.0404279
807 1 10.1602 11.5946 2.4144
808 1 10.5954 9.79786 0.890129
809 1 10.7122 10.9537 0.789999
810 1 11.82 10.9109 0.798484
811 1 11.232 11.3774 2.38112
812 1 11.172 10.8303 1.59299
813 1 12.2542 10.8614 1.63726
814 1 12.9012 11.3317 0.0986742
815 1 12.1912 11.3285 2.54316
816 1 12.8555 10.7192 0.778875
817 1 9.00462 12.2508 1.59917
818 1 9.57781 12.7958 0.04027
819 1 9.00079 12.8956 2.46739
820 1 9.41752 12.0822 0.710052
821 1 10.1955 12.1179 1.58632
822 1 10.7154 12.6769 0.0443825
823 1 10.0096 12.6925 2.46048
824 1 10.5215 12.1211 0.7167
825 1 11.1779 11.9918 1.56402
826 1 0.0975041 12.437 11.9314
827 1 11.2439 12.4742 2.46967
828 1 11.7375 12.0092 0.798013
829 1 12.3235 11.8713 1.57671
830 1 11.9174 12.5103 12.86
831 1 12.3591 12.4482 2.44898
832 1 12.9482 12.0413 0.760544
833 1 9.46894 9.2789 3.35844
834 1 10.0853 8.62706 4.82073
835 1 10.5211 9.22255 3.12227
836 1 10.6476 8.64922 4.03371
837 1 11.1418 10.2225 2.4077
838 1 11.8303 7.9761 3.14228
839 1 12.8331 9.19703 3.25265
840 1 12.6898 8.66145 4.13736
841 1 9.49866 10.5418 3.22462
842 1 9.48615 9.97705 4.10352
843 1 10.5315 10.294 3.27231
844 1 10.4996 9.68931 4.05631
845 1 11.7125 9.72195 3.94278
846 1 11.7684 9.0506 3.3312
847 1 12.7926 10.338 3.17343
848 1 12.8644 9.79869 4.08852
849 1 9.47389 11.6311 3.19464
850 1 9.38584 11.1263 4.07427
851 1 10.7125 11.3375 3.25174
852 1 10.6036 10.8708 3.98989
853 1 11.7857 11.4493 3.34858
854 1 11.8875 10.9157 4.12717
855 1 12.9343 11.4603 3.34739
856 1 12.8799 10.7698 4.01394
857 1 9.39859 12.8704 3.30411
858 1 9.63391 12.1561 3.90889
859 1 10.5587 12.4587 3.1559
860 1 10.7527 11.9722 3.99142
861 1 11.8215 12.5108 3.19791
862 1 11.8454 12.0252 4.08023
863 1 12.8604 12.7621 3.35889
864 1 13.0142 12.022 3.96993
865 1 13.4086 13.1726 4.80755
866 1 13.3937 0.402686 5.48476
867 1 1.17432 13.3023 4.84767
868 1 1.01524 0.466077 5.58849
869 1 2.20728 12.9126 5.74005
870 1 2.18967 13.4143 4.86577
871 1 3.35727 0.309964 4.79592
872 1 3.34095 0.764595 5.62987
873 1 13.4148 0.948932 4.76724
874 1 0.0586267 1.51547 5.66144
875 1 1.16123 1.02104 4.82676
876 1 1.16284 1.57477 5.64324
877 1 2.23882 0.594944 5.53703
878 1 2.28154 1.68572 5.65693
879 1 3.26984 1.36266 4.67315
880 1 3.39891 1.85687 5.55616
881 1 13.4263 2.05165 4.93098
882 1 0.0207081 2.59885 5.79037
883 1 1.08307 2.1147 4.89472
884 1 1.25353 2.70258 5.61994
885 1 2.19972 2.20687 4.86416
886 1 2.32446 2.86188 5.62526
887 1 3.55614 3.04613 5.55526
888 1 3.97544 3.04576 6.51131
889 1 13.4331 3.11073 4.99008
890 1 0.0921694 3.77652 5.66927
891 1 1.01252 3.31572 4.9343
892 1 1.24689 3.87309 5.67773
893 1 2.29234 3.36726 4.8832
894 1 2.30356 3.96963 5.69571
895 1 3.39012 3.60478 4.78249
896 1 3.36867 4.21235 5.7141
897 1 13.2302 13.2837 8.04459
898 1 0.379452 0.190272 6.38232
899 1 0.432673 13.1683 7.38947
900 1 1.12224 13.197 8.13494
901 1 1.65956 0.60728 6.37043
902 1 1.43831 0.0478728 7.25616
903 1 2.17771 0.122408 8.1433
904 1 2.85423 0.722282 6.5386
905 1 2.65904 0.166292 7.30218
906 1 3.244 0.375784 8.23085
907 1 3.98502 0.844105 6.4675
908 1 3.70315 0.328646 7.28366
909 1 0.0551982 0.926786 7.98633
910 1 0.560225 1.48569 6.5597
911 1 0.60164 0.768135 7.27002
912 1 1.16072 0.998018 8.11694
913 1 1.81914 1.64834 6.46534
914 1 1.74182 1.03754 7.17054
915 1 2.14008 1.16127 8.05721
916 1 2.98579 1.82032 6.30854
917 1 2.80922 1.29668 7.21667
918 1 3.28978 1.01345 8.95096
919 1 3.8964 2.465 7.40777
920 1 4.02109 1.34712 7.26553
921 1 0.0249645 1.95798 8.03119
922 1 0.64998 2.66123 6.40478
923 1 0.593671 2.0407 7.23361
924 1 1.12188 2.16178 8.14366
925 1 1.69585 2.77878 6.53178
926 1 1.60155 2.12064 7.23383
927 1 2.18952 2.28005 8.00352
928 1 2.88203 2.95313 6.41099
929 1 2.6956 2.39272 7.1942
930 1 3.39727 1.96983 9.01963
931 1 3.51513 3.47623 8.16172
932 1 3.32946 2.4252 7.99921
933 1 13.3118 2.99416 8.16444
934 1 0.627006 3.66556 6.39351
935 1 0.498391 3.20163 7.37217
936 1 1.06771 3.14988 8.08369
937 1 1.63946 3.8689 6.54602
938 1 1.70871 3.33411 7.38462
939 1 2.41242 3.36306 8.16019
940 1 2.809 4.02781 6.55686
941 1 2.76545 3.50438 7.26985
942 1 3.30395 4.11714 8.86241
943 1 4.5288 4.21435 5.71143
944 1 3.90808 2.00641 6.4924
945 1 4.54226 0.459033 4.64261
946 1 4.36587 0.87689 5.50948
947 1 5.45869 0.381055 4.75667
948 1 5.52604 0.969587 5.58598
949 1 6.66379 0.263726 4.76055
950 1 6.65854 0.824967 5.82178
951 1 7.7929 0.0559262 4.96628
952 1 8.32188 0.491862 6.41848
953 1 3.87355 1.38754 4.02182
954 1 3.91164 3.66009 4.05246
955 1 5.50686 1.57303 4.76957
956 1 5.61376 2.03972 5.6012
957 1 6.66302 1.24249 5.00244
958 1 6.74825 3.1057 5.73064
959 1 7.71624 1.2532 4.91663
960 1 7.93208 1.89119 5.65175
961 1 4.50993 2.01386 5.73831
962 1 5.03582 3.73044 7.383
963 1 5.62213 2.68556 4.80418
964 1 5.05016 3.19043 6.48035
965 1 6.83429 2.46077 4.92277
966 1 6.75003 4.19435 5.70622
967 1 7.99101 2.40981 4.91794
968 1 7.98791 3.06306 5.70154
969 1 5.60767 3.7146 4.91346
970 1 3.9227 4.16012 6.45279
971 1 4.92179 4.8703 3.99293
972 1 5.4958 4.81928 4.85288
973 1 6.69235 3.63569 4.8614
974 1 6.69165 4.72355 4.83674
975 1 7.91384 4.11962 5.56222
976 1 8.45548 3.91917 6.46364
977 1 4.328 0.378686 8.07803
978 1 5.08957 0.953997 6.45956
979 1 5.01803 0.4781 7.39755
980 1 5.6497 0.323602 8.04577
981 1 6.08185 0.939111 6.53858
982 1 6.23214 0.332545 7.20052
983 1 6.6808 13.2198 8.94408
984 1 7.86225 0.694998 5.66837
985 1 6.74643 0.317669 7.96915
986 1 7.79586 0.0602895 8.09324
987 1 8.41057 13.3898 7.27479
988 1 8.31246 12.8813 6.35674
989 1 4.41597 1.47009 8.22183
990 1 5.08046 2.08476 6.46032
991 1 5.02236 1.55538 7.27706
992 1 5.68864 1.45744 7.98737