data.lammps (converted from cfg to data.lammps)
    
2298  atoms
1  atom types
0.0   13.4375  xlo xhi
0.0   13.4375  ylo yhi
0.0   12.952  zlo zhi
0.0  0.0 0.0 xy xz yz
    
    
    
Atoms
  
1 1 13.3004 13.0286 1.47438
2 1 0.593299 0.217831 0.108736
3 1 13.3735 0.713252 1.70825
4 1 1.17563 13.1804 1.7299
5 1 1.63939 13.2618 0.777608
6 1 2.33713 13.3338 11.3472
7 1 1.00911 0.309038 2.40348
8 1 2.47783 1.06083 1.53095
9 1 2.21275 13.3317 1.66548
10 1 2.94882 0.0758433 0.976634
11 1 2.22274 0.521616 2.54476
12 1 2.79345 0.63757 0.143723
13 1 3.44637 13.2087 1.98633
14 1 3.9107 0.789555 12.8905
15 1 3.32074 0.560419 2.22464
16 1 3.85062 0.257282 0.928195
17 1 12.7853 0.899755 0.8205
18 1 1.16735 1.92609 11.3066
19 1 13.4276 1.32291 2.40414
20 1 0.558375 0.811259 0.955802
21 1 1.3106 0.912816 1.65731
22 1 0.645848 1.24928 0.0115441
23 1 1.11642 1.93457 1.6936
24 1 1.6739 1.5019 0.0178363
25 1 1.80318 0.86986 0.924924
26 1 2.2505 1.61507 12.1356
27 1 2.24987 1.53201 2.4976
28 1 2.83382 1.70682 3.13271
29 1 3.41671 1.17531 1.52389
30 1 3.97766 1.26688 0.867066
31 1 5.01532 2.04505 3.17156
32 1 5.68094 0.562785 1.54177
33 1 12.8077 1.98905 0.861971
34 1 0.646983 2.50032 0.0192474
35 1 13.4002 2.4041 2.29837
36 1 0.0399885 1.8432 1.57825
37 1 2.30694 2.07855 1.65657
38 1 1.689 2.58435 0.02441
39 1 1.20782 2.5227 2.49044
40 1 2.89674 2.21165 0.727004
41 1 2.81016 1.43431 0.355688
42 1 2.76334 2.76653 0.0295932
43 1 2.2772 2.62785 2.3913
44 1 3.409 2.20407 1.80367
45 1 3.51376 1.58939 2.49404
46 1 3.85285 2.97157 0.162515
47 1 2.83139 2.76937 3.30872
48 1 4.00933 2.37312 0.870812
49 1 13.4134 3.02794 1.56929
50 1 0.506633 3.19034 0.731271
51 1 0.228245 3.56639 2.39354
52 1 1.02189 2.94125 1.58924
53 1 0.575265 1.90396 0.796825
54 1 1.62643 3.79655 0.0579908
55 1 1.21733 3.70207 2.38392
56 1 1.66277 3.18721 0.854231
57 1 2.22896 3.27376 1.62779
58 1 2.72624 3.93158 0.134668
59 1 2.35971 3.81468 2.40971
60 1 2.7588 3.34576 0.918681
61 1 3.38216 3.25757 1.70939
62 1 3.92831 4.09166 0.113552
63 1 3.56901 3.96741 2.41288
64 1 3.85326 3.57041 0.872236
65 1 13.4038 0.106311 2.39871
66 1 0.609211 0.339149 3.31641
67 1 1.65303 0.506379 3.20816
68 1 1.67339 13.2816 4.0171
69 1 2.88996 0.483806 3.32164
70 1 2.66693 0.117629 4.12506
71 1 4.0657 1.97805 3.43471
72 1 3.83368 0.791127 3.25727
73 1 0.678817 1.46234 3.22546
74 1 0.550632 0.944014 4.06998
75 1 1.17841 1.44158 2.43059
76 1 1.68314 0.937079 4.24253
77 1 1.73338 1.51605 3.42508
78 1 2.24086 1.16733 5.02245
79 1 3.96601 2.35088 4.31388
80 1 4.32626 1.96928 2.39016
81 1 0.630857 2.52508 3.17578
82 1 0.578011 1.92963 4.10686
83 1 1.83861 2.55251 3.32954
84 1 1.65186 2.21793 4.11381
85 1 2.89473 2.21564 4.07952
86 1 3.26277 2.51276 5.02606
87 1 3.32475 2.93003 2.57294
88 1 4.41582 2.54736 5.06848
89 1 0.661085 3.62243 3.30768
90 1 0.62054 3.02741 4.02702
91 1 1.72691 3.72099 3.23433
92 1 1.7159 3.31834 4.11388
93 1 2.88418 3.93232 3.21616
94 1 2.85073 3.42952 4.05098
95 1 4.00216 4.09055 3.34006
96 1 3.99164 3.00819 3.26762
97 1 4.47263 0.279024 1.83371
98 1 5.02833 0.837378 0.139446
99 1 4.68544 1.40802 1.76413
100 1 4.94069 0.221004 0.98851
101 1 5.65959 0.967503 2.37186
102 1 6.12307 1.04514 0.153651
103 1 4.99585 13.1733 3.26674
104 1 6.14986 0.421377 0.78648
105 1 6.72075 0.287681 1.6641
106 1 7.25512 0.962465 12.8421
107 1 6.75885 0.889706 2.55049
108 1 7.89209 0.196188 1.53884
109 1 7.18779 0.303693 0.828726
110 1 7.69369 1.43761 11.4214
111 1 7.87217 0.750054 2.35958
112 1 8.57044 0.148924 0.97564
113 1 5.16602 1.46388 0.93565
114 1 4.50735 1.99934 12.2189
115 1 3.94225 1.27477 4.05304
116 1 6.04768 1.60152 1.29449
117 1 6.1033 2.10076 0.112005
118 1 6.21756 2.56242 0.834427
119 1 5.51229 1.90732 2.37173
120 1 4.9943 1.9216 0.0602618
121 1 6.69765 1.46482 1.79634
122 1 6.73324 1.9501 12.0652
123 1 6.53976 2.12464 2.49266
124 1 7.17485 1.37557 0.923883
125 1 7.73329 1.38707 1.71007
126 1 8.34205 1.74033 0.0384632
127 1 7.71081 1.93438 2.6023
128 1 7.78758 1.92508 12.2447
129 1 4.48862 2.5863 1.66646
130 1 5.06215 3.18672 0.0810993
131 1 4.57236 3.09288 2.50941
132 1 5.08431 2.53404 0.716367
133 1 5.53274 2.59693 1.60952
134 1 6.18931 3.21108 12.8756
135 1 5.58117 3.07386 2.39402
136 1 6.78595 2.61628 1.53766
137 1 7.81928 3.02985 2.54224
138 1 7.89997 2.94891 12.224
139 1 6.65785 3.14065 2.36298
140 1 7.15172 1.98075 0.128279
141 1 7.48031 2.42953 0.786763
142 1 8.54761 2.93394 12.9186
143 1 7.83624 3.50035 1.61658
144 1 7.79102 2.37364 1.75724
145 1 4.48087 3.70227 1.61438
146 1 5.0385 4.23137 12.9149
147 1 4.61006 4.15294 2.42698
148 1 5.01939 3.68776 0.879419
149 1 5.68061 3.74557 1.5766
150 1 6.0748 4.24999 12.8846
151 1 5.59493 4.27906 2.53188
152 1 6.2037 3.67138 0.843367
153 1 7.36671 4.34649 12.8311
154 1 6.71534 4.20267 12.2232
155 1 6.83578 3.8055 1.74373
156 1 7.22677 3.61828 0.696148
157 1 7.91248 4.12965 2.48494
158 1 8.48338 4.00896 0.133548
159 1 8.5183 4.08341 3.2115
160 1 8.33935 3.31048 0.856656
161 1 5.0718 0.897743 3.27515
162 1 4.38546 13.0909 2.57363
163 1 6.12843 0.77026 3.28632
164 1 6.08447 0.343282 4.21154
165 1 7.31515 0.882989 3.33733
166 1 7.2837 0.18789 4.01889
167 1 8.3343 0.706869 3.23244
168 1 8.46978 0.151627 4.14577
169 1 5.01388 1.40895 4.10212
170 1 4.51388 1.29676 5.03401
171 1 6.07599 2.11853 3.25331
172 1 6.15708 1.50363 3.90136
173 1 7.17759 1.97292 3.2533
174 1 7.28726 1.46553 4.15214
175 1 8.54403 1.68594 3.1082
176 1 8.50344 1.32422 4.01166
177 1 5.21902 3.10221 3.30927
178 1 4.98756 2.5021 4.1251
179 1 6.16597 3.28943 3.3529
180 1 6.21729 2.69664 4.02886
181 1 7.245 3.1311 3.23884
182 1 7.26355 2.56351 4.03368
183 1 8.38544 2.71157 3.30039
184 1 8.31456 2.3813 4.08244
185 1 5.02244 3.60796 4.18205
186 1 4.42951 3.64799 4.9742
187 1 6.76076 4.29507 2.48662
188 1 6.21553 3.88305 4.22953
189 1 7.25669 4.20283 3.31635
190 1 7.4512 3.61408 4.18102
191 1 8.41693 5.20253 3.31056
192 1 8.10402 3.61394 4.89355
193 1 9.15897 0.0673232 1.69745
194 1 8.9229 0.598074 12.1351
195 1 8.96946 0.621631 2.36342
196 1 9.58862 13.3903 0.8329
197 1 10.1789 0.00354741 1.72512
198 1 10.6418 0.337362 0.0145505
199 1 10.0413 0.446562 2.61817
200 1 10.5612 13.1986 0.828514
201 1 11.3026 13.208 1.56784
202 1 11.2639 0.452287 12.2641
203 1 11.0472 0.322399 2.46324
204 1 11.7034 13.0872 0.771077
205 1 12.2915 13.1846 1.75058
206 1 11.8912 0.265813 12.9306
207 1 12.3074 0.168662 2.54829
208 1 12.8307 13.0828 0.619893
209 1 8.28181 1.25579 0.918608
210 1 9.57937 2.23376 0.852714
211 1 9.0485 1.21917 1.55688
212 1 9.33362 0.607423 0.00746858
213 1 9.53282 1.16097 0.793588
214 1 10.1451 2.67541 12.1203
215 1 10.0351 1.44492 2.48652
216 1 10.6143 0.908996 0.762281
217 1 11.2484 0.952076 1.66971
218 1 11.65 1.9189 0.807911
219 1 11.274 1.43292 2.52932
220 1 11.6507 0.804874 0.698209
221 1 12.3047 0.720184 1.57398
222 1 12.5022 0.202459 12.0763
223 1 12.3314 1.27133 2.35658
224 1 0.555487 13.2282 0.933541
225 1 8.96097 2.38396 1.60747
226 1 9.14836 2.89246 12.2011
227 1 9.45536 2.86969 3.31806
228 1 9.99211 2.11784 1.63724
229 1 10.2112 1.08659 1.53154
230 1 10.0575 2.21721 11.2355
231 1 10.0051 2.68759 2.38086
232 1 10.6257 2.15203 0.759068
233 1 11.1167 2.06021 1.64972
234 1 12.3815 2.53611 12.1557
235 1 11.1991 2.62788 2.35814
236 1 11.8049 2.45513 12.8822
237 1 12.244 1.90538 1.54934
238 1 11.6992 3.56502 12.8825
239 1 12.2736 2.43989 2.33545
240 1 12.8582 1.41039 12.9499
241 1 8.87451 2.84837 2.35765
242 1 9.49928 4.4484 0.921328
243 1 8.95496 3.57584 1.54292
244 1 9.62787 3.34611 0.964918
245 1 10.1843 3.27939 1.63349
246 1 10.6743 3.737 12.8683
247 1 10.1528 4.46399 1.72842
248 1 10.0804 3.28001 11.2753
249 1 11.3019 3.17548 1.66714
250 1 12.3135 3.72756 11.9887
251 1 11.2113 4.29524 1.68472
252 1 11.7547 4.23511 0.733318
253 1 12.3388 3.06804 1.57859
254 1 12.8975 3.0568 0.790032
255 1 12.2996 3.57189 2.50746
256 1 12.903 2.52754 0.00590133
257 1 9.42256 0.558222 3.29097
258 1 9.61641 13.3919 4.07308
259 1 10.6385 0.397782 3.44829
260 1 10.5943 13.1841 4.0913
261 1 11.6644 0.286449 3.14266
262 1 11.7861 13.1776 4.00759
263 1 12.9756 0.275545 3.2548
264 1 12.8304 13.1152 4.0958
265 1 8.99615 1.67265 2.38005
266 1 9.49671 1.12562 3.94945
267 1 10.6944 1.65915 3.23515
268 1 10.635 1.04559 4.06054
269 1 11.8982 1.50399 3.22243
270 1 11.7546 0.86211 3.88538
271 1 13.026 1.31451 3.22853
272 1 12.8256 0.75932 4.11931
273 1 9.62422 2.38805 4.07044
274 1 9.63071 1.82884 3.29018
275 1 10.6062 2.645 3.2098
276 1 10.8231 2.21527 4.0474
277 1 11.8589 2.6629 3.31544
278 1 11.7997 1.93707 4.05925
279 1 12.8648 2.39865 3.10255
280 1 13.0332 1.91818 3.95856
281 1 9.9953 3.9528 2.38441
282 1 9.61903 4.53474 4.09301
283 1 12.9987 3.43351 3.02337
284 1 10.7277 3.29842 4.0542
285 1 11.0215 3.71451 2.45382
286 1 11.7965 3.05489 4.09891
287 1 11.6622 3.68802 3.21658
288 1 12.9268 3.02643 3.95474
289 1 13.3488 4.17167 1.69514
290 1 0.471112 4.85005 12.8826
291 1 0.0796985 4.69758 2.56663
292 1 0.469432 4.2117 0.836881
293 1 1.18975 4.13437 1.60376
294 1 1.69753 4.80891 0.00737989
295 1 1.24061 4.8017 2.32109
296 1 1.66043 4.44033 0.870329
297 1 2.34111 4.40956 1.65366
298 1 2.75591 5.12737 0.152468
299 1 2.36461 4.98011 2.48603
300 1 2.91899 4.50757 0.892402
301 1 3.49582 4.54311 1.73813
302 1 3.78688 5.29588 0.0521808
303 1 3.36529 5.18717 2.30785
304 1 3.99408 4.64852 0.808859
305 1 13.4256 5.07278 1.59741
306 1 0.603915 5.88463 0.0990138
307 1 0.0412924 5.81914 2.39595
308 1 0.646395 5.29231 0.835894
309 1 1.05002 5.44911 1.72557
310 1 1.69474 5.99768 0.0591122
311 1 1.17537 6.11108 2.52434
312 1 1.70984 5.50584 0.841151
313 1 2.0774 5.55213 1.67857
314 1 2.88315 6.19821 12.902
315 1 2.23445 6.15779 2.36862
316 1 2.67563 5.60392 0.878987
317 1 3.34497 5.70652 1.50276
318 1 3.88756 6.33836 12.8109
319 1 3.33927 6.11507 2.47289
320 1 3.99728 5.75844 0.815059
321 1 13.3616 6.28824 1.65739
322 1 0.595047 7.06291 12.9108
323 1 13.3825 6.91973 2.38227
324 1 0.495442 6.59865 0.718003
325 1 1.00435 6.47893 1.40994
326 1 1.64331 7.10556 0.0370449
327 1 1.07583 7.01228 2.34881
328 1 1.74702 6.71226 0.915556
329 1 2.29565 6.69139 1.65365
330 1 2.77273 7.25966 12.889
331 1 2.0318 7.35452 2.29744
332 1 2.8204 6.59535 0.817884
333 1 3.32647 6.83888 1.65125
334 1 3.97547 7.40523 0.0665559
335 1 3.25307 7.34429 2.45354
336 1 3.87656 6.80479 0.858452
337 1 13.3802 7.55308 1.65409
338 1 0.577392 8.25763 12.9211
339 1 13.2587 8.15964 2.31293
340 1 0.526457 7.67874 0.744432
341 1 1.13421 7.65474 1.56855
342 1 1.64277 8.356 12.9095
343 1 1.07547 8.22808 2.35625
344 1 1.5969 7.80751 0.68947
345 1 2.23165 7.82217 1.46514
346 1 2.78838 8.45078 0.0103631
347 1 2.24999 8.33474 2.43887
348 1 2.75461 7.83812 0.732902
349 1 3.38636 7.8346 1.61185
350 1 4.00064 8.54625 0.0554454
351 1 2.69528 9.6671 3.26967
352 1 3.81421 7.99917 0.776643
353 1 0.697993 4.69274 3.19433
354 1 0.543601 4.17218 4.11482
355 1 1.75156 4.78354 3.13403
356 1 1.6707 4.44945 4.02955
357 1 2.95732 4.96471 3.28902
358 1 2.70666 4.51609 4.05622
359 1 3.94646 5.17002 3.35694
360 1 4.03814 4.55385 4.17834
361 1 0.570629 5.85323 3.16774
362 1 0.692104 5.29166 3.98735
363 1 1.79276 5.8401 3.16334
364 1 1.65351 5.48386 4.11907
365 1 2.79414 6.21879 3.2401
366 1 2.63445 5.53712 3.9251
367 1 3.8746 6.32484 3.27142
368 1 3.91825 5.68555 4.15852
369 1 0.542933 6.987 3.11537
370 1 0.481909 6.53265 3.89121
371 1 1.63994 7.18166 3.26844
372 1 1.59541 6.57158 3.9483
373 1 2.67956 7.25452 3.27476
374 1 2.80711 6.66112 4.10927
375 1 5.04723 7.52347 3.24661
376 1 3.36024 6.82277 4.7126
377 1 0.559714 8.01719 3.09949
378 1 0.514788 7.64238 3.98962
379 1 1.80119 8.46838 3.20647
380 1 1.53869 7.87048 3.99521
381 1 3.89368 8.61248 3.20484
382 1 2.82826 7.80244 4.03522
383 1 3.81609 7.51242 3.25848
384 1 3.87242 8.03811 3.9845
385 1 4.58477 4.78376 1.63449
386 1 5.03013 5.31192 0.0203264
387 1 4.4542 5.12266 2.50679
388 1 5.1562 4.83383 0.829932
389 1 5.52867 5.40287 2.63922
390 1 6.15186 4.71444 0.804848
391 1 6.24486 5.35353 3.28087
392 1 5.63421 4.86224 1.75978
393 1 6.71296 4.92163 1.62228
394 1 6.74941 5.40616 12.1839
395 1 6.68895 5.42567 2.50339
396 1 7.21047 4.68199 0.86875
397 1 7.84163 4.54326 1.64883
398 1 8.34407 5.15789 0.0138996
399 1 7.74902 5.23799 2.4424
400 1 8.30123 4.58286 0.775344
401 1 4.50468 5.89273 1.77894
402 1 5.00222 6.45472 0.0587118
403 1 4.39448 6.45169 2.44987
404 1 4.99348 5.99005 0.880717
405 1 5.60105 5.88753 1.62962
406 1 6.12743 6.55671 0.106224
407 1 6.27281 6.61695 3.28289
408 1 6.08759 5.86454 0.759634
409 1 6.60649 5.95021 1.62978
410 1 7.22055 5.95839 0.802027
411 1 6.73815 6.51145 2.54157
412 1 7.29589 5.33458 0.103611
413 1 7.82118 5.67673 1.58102
414 1 8.2247 6.15201 0.000480283
415 1 7.82975 6.37545 2.43424
416 1 8.46057 5.69563 0.870282
417 1 4.46863 6.95615 1.61041
418 1 5.00748 7.69292 12.8511
419 1 4.37494 7.5125 2.58315
420 1 4.99157 7.13819 0.816165
421 1 5.60712 6.43163 2.53111
422 1 6.06958 7.55095 12.8739
423 1 5.51879 7.04382 1.7794
424 1 6.01277 7.17958 0.878886
425 1 6.65483 6.96005 1.57597
426 1 7.21485 7.60669 0.0120918
427 1 6.72031 7.52169 2.37281
428 1 7.2971 6.98825 0.984686
429 1 7.93717 6.83149 1.6554
430 1 8.49339 6.79817 0.760315
431 1 7.76701 7.55114 2.46335
432 1 8.90323 6.73764 1.60895
433 1 4.37528 8.04636 1.58707
434 1 5.06901 8.69502 12.8954
435 1 4.45944 8.67559 2.40635
436 1 4.98621 8.1684 0.893906
437 1 5.58547 7.64807 2.36956
438 1 6.15431 8.76543 0.0812807
439 1 5.60688 8.18904 1.65797
440 1 6.07341 8.19087 0.657218
441 1 6.5673 8.18031 1.5761
442 1 7.3085 8.71478 12.9091
443 1 6.7609 8.71001 2.38744
444 1 7.13358 8.06195 0.811508
445 1 7.76497 7.94874 1.57669
446 1 8.40036 7.84985 0.829718
447 1 7.84045 9.15571 1.52853
448 1 8.32063 7.34382 12.9369
449 1 4.90016 5.38207 3.30812
450 1 5.14443 4.23718 3.445
451 1 6.2053 5.98805 4.02027
452 1 6.19416 4.23678 3.32609
453 1 7.34878 5.37632 3.43773
454 1 7.42219 4.74094 4.03911
455 1 8.56031 5.61311 4.05558
456 1 8.45024 3.49685 3.83501
457 1 5.0927 5.9317 4.15112
458 1 4.42051 5.34284 5.62464
459 1 6.10565 7.18617 4.03301
460 1 6.15646 7.65413 3.18727
461 1 7.3048 6.43926 3.35165
462 1 8.38202 6.47396 6.45396
463 1 8.34639 6.27402 3.22572
464 1 7.85845 6.38008 5.50244
465 1 4.96203 8.14768 4.01186
466 1 5.05462 6.46121 3.24672
467 1 6.0961 8.66884 3.14858
468 1 5.02835 6.94191 4.09993
469 1 6.09552 8.2419 4.10417
470 1 7.19981 7.62936 3.24766
471 1 8.34778 7.37512 3.22323
472 1 8.39286 6.7524 4.06172
473 1 5.02295 8.62224 3.2773
474 1 4.44749 7.92024 4.80153
475 1 5.52678 8.25197 4.89525
476 1 6.80916 8.09213 5.03826
477 1 7.26536 8.74291 3.18915
478 1 6.72412 9.3479 4.84104
479 1 7.83621 8.65785 2.32702
480 1 8.45912 7.9068 3.98444
481 1 8.99665 3.80225 2.58351
482 1 9.41082 4.92238 12.9152
483 1 8.95326 4.54389 1.74553
484 1 10.1122 5.09328 2.48548
485 1 10.6587 3.21866 0.863725
486 1 10.0261 5.01533 12.2793
487 1 10.0379 5.53859 1.61377
488 1 10.6425 4.90658 1.50489e-05
489 1 10.7456 4.30687 0.744276
490 1 12.3923 4.75497 12.1633
491 1 11.1465 4.89239 2.37409
492 1 11.7386 4.73302 12.867
493 1 12.2537 4.10858 1.5383
494 1 12.8616 4.77442 0.0908651
495 1 12.3031 4.56616 2.44294
496 1 12.8054 4.08126 0.69451
497 1 8.93105 5.1127 2.46901
498 1 9.4274 6.06735 0.00133039
499 1 9.42119 6.22284 3.38003
500 1 8.91101 5.64726 1.72852
501 1 9.47611 5.50868 0.814029
502 1 10.6638 6.06014 0.00347668
503 1 10.0648 6.04815 2.54973
504 1 10.4841 5.34577 0.78666
505 1 11.1663 5.34116 1.52837
506 1 11.1965 6.02204 12.1797
507 1 11.3862 6.02926 2.44298
508 1 11.7373 5.32883 0.849336
509 1 12.3545 5.15301 1.63696
510 1 12.9954 5.82771 12.8995
511 1 12.3361 5.68244 2.31473
512 1 12.8416 5.34862 0.793485
513 1 8.99 6.30517 2.47811
514 1 9.50207 7.29812 0.0456364
515 1 8.91426 7.43794 2.46009
516 1 9.51612 6.73818 0.863485
517 1 10.061 6.4822 1.64349
518 1 10.6311 7.15052 12.9392
519 1 10.0103 7.11856 2.36365
520 1 10.6439 6.51353 0.799307
521 1 11.0971 6.47819 1.64731
522 1 11.7651 7.01318 0.116408
523 1 11.1449 7.03442 2.54346
524 1 12.9067 6.37127 0.849548
525 1 12.2155 6.40365 1.68898
526 1 12.2916 6.93528 12.0801
527 1 12.3853 6.97093 2.36874
528 1 12.8061 6.87792 12.9093
529 1 8.92586 7.835 1.55796
530 1 10.1889 8.36216 12.1894
531 1 8.21485 8.51706 3.38414
532 1 9.49232 7.94158 0.757815
533 1 9.97511 7.65392 1.53903
534 1 10.6884 8.1727 0.00240287
535 1 10.0582 8.2695 2.2459
536 1 10.5912 7.67614 0.898715
537 1 11.1598 7.55381 1.65761
538 1 11.7001 7.4829 0.90677
539 1 11.089 8.07613 2.38354
540 1 11.8104 6.38098 0.77111
541 1 12.3554 7.46465 1.51391
542 1 12.7606 7.96298 0.101053
543 1 12.9724 8.00786 3.24191
544 1 12.9033 7.39824 0.726975
545 1 9.54756 4.8036 3.20927
546 1 9.517 3.66046 3.74435
547 1 10.5749 4.76232 3.30465
548 1 10.447 3.70171 3.24072
549 1 11.778 4.69326 3.22369
550 1 12.0099 4.10512 4.13335
551 1 12.9161 4.73755 3.18646
552 1 12.9577 3.96694 3.80943
553 1 9.5835 6.82333 4.08769
554 1 9.60985 5.63875 3.97669
555 1 10.6726 5.97025 3.25403
556 1 10.7348 5.34056 4.02241
557 1 11.8022 5.75964 3.32014
558 1 11.8865 5.22184 4.08209
559 1 12.8055 5.86391 3.13025
560 1 13.0357 5.14889 3.98356
561 1 9.54573 8.32726 3.09441
562 1 9.5602 7.28184 3.22244
563 1 10.5693 7.14725 3.36995
564 1 10.6451 6.48515 4.01127
565 1 11.6459 6.90366 3.2204
566 1 11.7335 6.48376 4.01556
567 1 12.763 6.95559 3.16391
568 1 12.9749 6.33613 4.02467
569 1 8.8637 8.43135 2.34089
570 1 8.94228 7.93185 4.88695
571 1 10.5842 8.35466 3.18237
572 1 10.8597 7.67921 4.12586
573 1 12.1858 7.98374 2.50686
574 1 11.6327 8.80045 4.14886
575 1 12.9801 7.33923 4.04679
576 1 12.3669 7.44986 4.90319
577 1 13.3371 8.78106 1.66295
578 1 0.608279 9.22796 0.00902538
579 1 0.470369 9.07665 3.36374
580 1 0.468703 8.69504 0.996421
581 1 1.24165 8.81167 1.66876
582 1 1.64026 9.47914 12.8487
583 1 0.971331 9.41966 2.37686
584 1 1.66702 8.93232 0.738754
585 1 2.29209 8.93564 1.57852
586 1 2.74982 9.6531 0.00950709
587 1 2.04663 9.46187 2.45838
588 1 2.70916 9.00355 0.773688
589 1 3.41053 8.99712 1.52312
590 1 3.94915 9.79102 0.021459
591 1 3.22598 8.50281 2.42696
592 1 3.85015 9.27311 0.689226
593 1 0.0254822 9.27116 2.4958
594 1 0.540437 10.6339 12.8848
595 1 0.0746496 10.2174 2.32762
596 1 0.545049 9.82729 0.700259
597 1 1.13975 9.91716 1.51492
598 1 1.6457 10.5675 12.9337
599 1 1.16902 10.5815 2.34927
600 1 1.7086 10.0582 0.85958
601 1 2.33338 9.99039 1.68
602 1 2.77541 10.6693 12.881
603 1 2.18584 10.6296 2.40942
604 1 2.76047 10.1006 0.905679
605 1 3.49016 10.1005 1.66384
606 1 3.88359 10.8816 12.874
607 1 3.32059 10.7636 2.34423
608 1 3.86335 10.3711 0.831812
609 1 0.00488178 10.921 1.59325
610 1 0.540385 12.0598 0.701741
611 1 13.3905 11.3497 2.58773
612 1 0.621763 11.0428 0.857321
613 1 1.14789 11.1322 1.64423
614 1 2.20865 11.6617 12.1874
615 1 1.16461 11.6799 2.43498
616 1 1.66823 11.1034 0.858341
617 1 2.27115 11.1707 1.66118
618 1 2.7087 12.4159 0.686959
619 1 2.22005 11.7751 2.36342
620 1 2.81289 11.1723 0.858891
621 1 3.34303 11.4288 1.71405
622 1 3.94954 11.9162 12.8797
623 1 3.39998 12.1542 2.48954
624 1 3.88066 11.335 0.834688
625 1 0.0151813 11.9993 1.7989
626 1 0.102567 12.6238 12.1619
627 1 13.3842 12.6096 2.51078
628 1 0.528342 12.6333 12.8948
629 1 0.937417 12.2087 1.55429
630 1 1.68547 0.455537 0.0325762
631 1 1.08261 12.7068 2.52504
632 1 1.71538 12.1738 0.851395
633 1 2.20265 12.2683 1.60228
634 1 1.49229 12.7102 12.7825
635 1 2.27983 12.9117 2.4703
636 1 2.68805 12.9858 12.9051
637 1 3.25746 12.4265 1.50993
638 1 4.04877 13.2023 0.116099
639 1 3.90154 13.172 3.33403
640 1 3.88267 12.5357 0.722349
641 1 0.385629 9.86046 3.93105
642 1 0.493614 8.67861 4.17483
643 1 1.52684 9.5772 3.17732
644 1 1.55417 8.97905 4.02542
645 1 2.81041 8.42844 3.26284
646 1 2.74618 9.05149 3.96203
647 1 3.12715 9.6232 2.48055
648 1 3.82169 9.63821 3.14596
649 1 0.583663 10.3414 3.15693
650 1 13.4272 9.66975 4.80004
651 1 1.80429 10.622 3.24182
652 1 1.6122 9.95938 4.1105
653 1 2.83961 10.7905 3.23959
654 1 2.71861 10.206 4.11131
655 1 3.86617 10.7706 3.16309
656 1 3.98437 10.2348 3.94527
657 1 0.588201 11.463 3.24009
658 1 0.688208 10.8921 4.04013
659 1 1.75859 11.5933 3.27787
660 1 1.68745 11.089 4.11893
661 1 2.79902 11.8729 3.1946
662 1 2.76385 11.3152 4.0153
663 1 3.98907 11.8835 3.20183
664 1 3.83994 11.3264 3.96835
665 1 0.510527 13.2167 4.01581
666 1 0.593052 12.6524 3.3466
667 1 1.79012 12.774 3.2627
668 1 1.61169 12.3034 4.0694
669 1 2.92033 12.996 3.19446
670 1 2.8167 12.4431 4.08004
671 1 4.01084 0.127907 4.16964
672 1 3.8248 12.43 3.98054
673 1 4.34708 9.27931 1.66186
674 1 5.09339 9.70744 12.8961
675 1 4.40566 9.78224 2.48921
676 1 4.95677 9.19911 0.807398
677 1 5.50764 9.25207 1.58532
678 1 6.22252 10.9051 12.9117
679 1 5.61841 9.9694 2.36581
680 1 6.15556 9.41266 0.800443
681 1 6.68315 9.27807 1.59804
682 1 7.42317 9.76349 0.00210282
683 1 6.63712 9.80614 2.38858
684 1 7.2013 9.17557 0.812592
685 1 8.44736 9.0194 0.801142
686 1 8.46827 9.58247 12.8847
687 1 7.84054 10.2991 1.6584
688 1 8.26449 8.43419 0.0885259
689 1 4.59214 10.3798 1.51347
690 1 5.0801 10.8654 0.0774536
691 1 4.35138 10.9077 2.35603
692 1 5.08855 10.2859 0.725868
693 1 5.56237 10.4489 1.59535
694 1 5.63155 11.1389 12.2575
695 1 5.63145 11.038 2.56995
696 1 6.1791 9.88319 12.8602
697 1 6.19204 10.4296 0.84317
698 1 7.2978 10.8507 0.0505606
699 1 6.80589 11.0536 2.33124
700 1 6.70709 10.4851 1.64126
701 1 7.2172 10.3074 0.835522
702 1 8.47393 10.7474 0.0949331
703 1 7.8602 10.6929 2.43112
704 1 8.34446 10.139 0.788943
705 1 4.49682 11.4543 1.61361
706 1 5.11384 12.1481 12.9138
707 1 4.49449 12.1822 2.34851
708 1 4.99725 11.5619 0.72467
709 1 5.52508 11.4428 1.61592
710 1 6.14096 12.1639 0.0636459
711 1 5.62553 12.1125 2.32431
712 1 6.13172 11.539 0.794461
713 1 6.75721 11.5299 1.57027
714 1 7.23881 11.9186 12.8492
715 1 6.64005 12.1976 2.45486
716 1 7.21822 11.4625 0.765221
717 1 7.92147 11.4431 1.59563
718 1 8.42112 11.8651 0.00813571
719 1 7.86618 11.874 2.42125
720 1 8.33305 11.3097 0.865164
721 1 4.37944 12.5364 1.46918
722 1 5.0958 13.2905 12.8559
723 1 4.52856 0.862782 2.54059
724 1 5.01389 12.7044 0.808206
725 1 5.59228 12.798 1.59589
726 1 6.10166 13.2955 0.0119568
727 1 5.55921 13.3344 2.34568
728 1 6.17823 12.7392 0.839854
729 1 6.78732 12.552 1.52926
730 1 7.33353 13.213 0.0276893
731 1 6.78809 13.2383 2.39387
732 1 7.31227 12.5597 0.644976
733 1 7.80893 12.6251 1.67173
734 1 8.4203 13.015 0.0722542
735 1 7.84698 13.0658 2.49026
736 1 8.30241 12.4729 0.768416
737 1 5.0409 9.78802 3.23076
738 1 4.8717 9.32769 3.9863
739 1 6.21233 9.76851 3.22209
740 1 6.07517 9.28289 3.97906
741 1 7.73621 9.60461 2.45965
742 1 7.20728 9.30687 4.0148
743 1 8.41886 9.64729 3.17115
744 1 8.89745 9.01968 4.78223
745 1 4.99421 10.98 3.11604
746 1 5.06798 10.4871 4.01283
747 1 6.28442 10.9606 3.25718
748 1 6.11679 10.4262 3.95607
749 1 7.36781 10.89 3.35256
750 1 7.32698 10.3262 4.20954
751 1 8.45118 10.7701 3.20609
752 1 8.4205 10.1617 3.96108
753 1 5.02857 12.0727 3.21234
754 1 5.03388 11.4433 4.00805
755 1 6.00422 12.0372 3.19435
756 1 6.09791 11.542 4.07111
757 1 7.24608 11.9726 3.11095
758 1 7.2453 11.4849 4.05525
759 1 8.37524 11.9118 3.21605
760 1 8.37082 11.3315 4.0085
761 1 5.00152 0.380752 4.01142
762 1 4.96027 12.6158 4.07338
763 1 5.98482 13.1451 3.06492
764 1 6.13976 12.6937 3.91755
765 1 7.16733 13.1399 3.21369
766 1 7.10769 12.4514 3.95463
767 1 8.36514 13.0572 3.28524
768 1 8.25595 12.4589 4.0723
769 1 9.01772 9.0487 1.60049
770 1 9.45551 8.91859 0.68602
771 1 8.93051 9.55645 2.49084
772 1 9.60666 9.56215 0.238704
773 1 10.0613 8.93774 1.63996
774 1 9.99313 9.45758 12.0557
775 1 10.092 9.49151 2.3944
776 1 10.6071 8.6958 0.804178
777 1 11.2571 8.71322 1.52857
778 1 11.7368 9.25445 12.868
779 1 11.0962 9.25544 2.36624
780 1 11.7667 8.66099 0.770542
781 1 12.3454 8.47347 1.56996
782 1 13.0719 9.24559 12.7252
783 1 12.2035 9.06166 2.4109
784 1 12.8404 8.71888 0.674693
785 1 8.90019 10.145 1.7354
786 1 9.58545 10.6002 0.0364692
787 1 9.12813 10.7305 2.52252
788 1 9.38068 10.1871 0.983361
789 1 10.1355 9.96442 1.4568
790 1 11.2909 9.92316 1.66165
791 1 10.0988 10.4495 2.33224
792 1 10.5564 9.23988 12.9
793 1 11.786 9.78263 0.791542
794 1 11.7443 10.3262 0.000659903
795 1 11.7136 10.2988 3.06328
796 1 12.7786 9.68842 0.693845
797 1 12.3779 9.63518 1.70988
798 1 12.8229 10.3131 0.00893479
799 1 12.4484 10.2925 2.37841
800 1 0.00984528 9.91206 1.43872
801 1 8.98218 11.2239 1.59639
802 1 9.52 11.6143 12.8829
803 1 8.97237 11.8287 2.36125
804 1 9.52447 11.2869 0.895867
805 1 10.2322 11.0528 1.65494
806 1 10.6985 11.6026 0.030774
807 1 10.0509 11.6458 2.33826
808 1 10.7122 9.85146 0.749556
809 1 10.6146 10.9626 0.74697
810 1 11.812 10.9453 0.905242
811 1 11.2037 11.5871 2.54601
812 1 11.2752 11.065 1.49939
813 1 12.3541 10.898 1.685
814 1 12.8738 11.3599 12.9028
815 1 12.1838 11.3932 2.41297
816 1 12.957 10.873 0.857023
817 1 8.92274 12.3685 1.59821
818 1 9.50424 12.8521 0.114798
819 1 8.87646 12.9669 2.47251
820 1 9.52887 12.3131 0.800088
821 1 10.0858 12.4006 1.71004
822 1 10.6198 12.6878 12.8749
823 1 9.96986 12.7507 2.53946
824 1 10.5585 12.1005 0.767457
825 1 11.085 12.1055 1.66085
826 1 13.3907 12.0587 11.2968
827 1 11.1679 12.7437 2.45465
828 1 11.6916 12.1259 0.947645
829 1 12.4405 12.0775 1.59946
830 1 11.7536 12.4314 0.0756458
831 1 12.229 12.4398 2.47619
832 1 12.8391 11.8721 0.756656
833 1 9.52302 9.32795 3.23655
834 1 10.1352 8.93084 4.8465
835 1 10.5861 9.43385 3.36407
836 1 10.5268 8.75798 4.01881
837 1 11.1247 10.4228 2.39981
838 1 11.6535 8.23817 3.36086
839 1 12.7483 8.97777 3.22716
840 1 12.7932 8.49832 4.15057
841 1 9.57618 10.5584 3.2956
842 1 9.50198 9.97556 4.04716
843 1 10.5989 10.5324 3.37843
844 1 10.7866 9.90169 4.1361
845 1 11.7902 9.86659 4.10997
846 1 11.704 9.25623 3.21489
847 1 12.8123 10.1659 3.18701
848 1 12.8093 9.58384 4.01942
849 1 9.41302 11.6812 3.35114
850 1 9.48423 11.1841 4.17802
851 1 10.4386 11.633 3.14033
852 1 10.7125 11.0475 4.07138
853 1 11.6057 11.3661 3.35655
854 1 11.8377 10.7956 3.99753
855 1 12.7427 11.504 3.23713
856 1 12.748 10.8518 3.98367
857 1 9.40646 12.8735 3.24339
858 1 9.54216 12.2692 4.07844
859 1 10.6598 12.6437 3.27458
860 1 10.6351 11.9687 4.10933
861 1 11.6583 12.5212 3.3504
862 1 11.7542 11.9571 4.0764
863 1 12.7901 12.5823 3.26629
864 1 12.8165 11.9289 4.11985
865 1 0.0403736 13.1194 4.98521
866 1 0.0607746 0.300332 5.63683
867 1 1.04782 13.2047 4.92207
868 1 1.12896 0.4455 5.77648
869 1 2.26271 12.8475 5.63984
870 1 2.20884 13.3161 4.886
871 1 3.4151 0.05967 4.75661
872 1 3.20558 0.537234 5.70468
873 1 13.4195 0.809269 4.80916
874 1 0.155848 1.42738 5.68241
875 1 1.10575 0.839162 4.91664
876 1 1.25688 1.54887 5.65554
877 1 2.29895 0.541864 5.65383
878 1 2.20327 1.80968 5.7554
879 1 2.66639 1.15853 3.96707
880 1 3.3724 1.68405 5.51995
881 1 0.0428831 2.04226 4.93213
882 1 13.3932 2.54442 5.67044
883 1 1.19992 2.05133 4.93193
884 1 1.16612 2.66159 5.7736
885 1 2.28341 2.23783 4.76407
886 1 2.20331 2.77226 5.70642
887 1 3.4053 2.87905 5.84934
888 1 3.99029 2.81018 6.56503
889 1 0.0777312 3.08818 4.76163
890 1 0.0730221 3.48496 5.7173
891 1 1.17114 3.2003 4.9925
892 1 1.07002 3.81559 5.70868
893 1 2.26527 3.28316 4.91537
894 1 2.21873 3.8558 5.6898
895 1 3.30137 3.53088 4.95524
896 1 3.22108 3.98829 5.69459
897 1 0.0488381 13.0787 8.01386
898 1 0.733501 0.163456 6.56486
899 1 0.573867 13.0069 7.31372
900 1 1.20027 13.2143 8.13524
901 1 1.81768 0.463954 6.48093
902 1 1.68267 13.4104 7.46682
903 1 2.21648 13.3283 8.35804
904 1 2.73244 0.635496 6.64502
905 1 2.77664 13.385 7.33356
906 1 3.32155 0.144355 8.1528
907 1 3.89843 0.606984 6.5108
908 1 3.90517 0.0610744 7.20456
909 1 0.0758742 0.709806 8.04696
910 1 0.741938 1.43741 6.59256
911 1 0.680448 0.778371 7.24853
912 1 1.09879 0.969993 8.12883
913 1 1.70924 1.60109 6.60754
914 1 1.8234 1.02615 7.46919
915 1 2.39517 1.01911 8.13831
916 1 2.89119 1.706 6.45767
917 1 2.97865 1.12494 7.38112
918 1 3.31955 0.625056 9.06659
919 1 3.93934 2.42063 7.43556
920 1 4.0268 1.38268 7.20776
921 1 0.00593306 1.88726 8.20483
922 1 0.545995 2.43557 6.47647
923 1 0.520086 1.93234 7.33486
924 1 1.11288 2.02807 8.04925
925 1 1.66883 2.71761 6.60163
926 1 1.83124 2.07591 7.30805
927 1 2.27586 2.23325 8.19053
928 1 2.80778 2.8008 6.62038
929 1 2.94859 2.25875 7.37128
930 1 3.3373 1.76843 8.95488
931 1 3.37168 3.36909 8.20842
932 1 3.43198 2.32561 8.2719
933 1 13.4312 3.05848 8.02069
934 1 0.554039 3.56219 6.64713
935 1 0.719631 2.97032 7.47134
936 1 1.21535 3.16785 8.24154
937 1 1.63169 3.83075 6.41391
938 1 1.70361 3.2431 7.36742
939 1 2.28413 3.28035 8.2625
940 1 2.83572 3.84322 6.62731
941 1 2.7864 3.3356 7.41669
942 1 3.49429 3.96215 9.1125
943 1 4.46426 4.16654 5.7807
944 1 3.96534 1.73139 6.39668
945 1 4.68348 0.192601 4.96644
946 1 4.21456 0.729729 5.69247
947 1 5.57263 0.39134 4.98309
948 1 5.60375 0.941246 5.71507
949 1 6.74142 0.534009 4.76627
950 1 6.76792 0.958387 5.76876
951 1 7.75875 0.0823508 4.73782
952 1 8.47905 0.713267 6.44067
953 1 3.35607 1.20746 4.73648
954 1 3.93478 3.41329 4.06318
955 1 5.63739 1.50798 4.80579
956 1 5.71383 2.13289 5.63013
957 1 6.65918 1.61222 4.79737
958 1 6.72188 3.19567 5.72061
959 1 7.95732 1.18809 4.72593
960 1 7.89594 1.81439 5.67691
961 1 4.563 1.89465 5.72494
962 1 5.09766 3.73499 7.34846
963 1 5.56877 2.63315 4.84843
964 1 5.14691 3.21074 6.49645
965 1 6.65487 2.68953 4.892
966 1 6.6442 4.29776 5.74706
967 1 7.77112 2.4384 4.99081
968 1 7.95671 3.09072 5.60797
969 1 5.63045 3.69409 4.88845
970 1 3.91885 4.01984 6.49518
971 1 5.06934 4.88911 4.13042
972 1 5.61275 4.88003 4.94333
973 1 6.86667 3.73919 4.85617
974 1 6.72259 4.79869 4.90688
975 1 7.81897 4.16873 5.72655
976 1 8.51571 4.12058 6.5673
977 1 4.50674 0.271577 7.89237
978 1 5.03801 0.922823 6.36569
979 1 5.12919 0.379635 7.12282
980 1 5.58366 0.315823 7.98439
981 1 6.19856 1.02822 6.48389
982 1 6.20829 0.376982 7.24194
983 1 6.67369 13.2506 8.87845
984 1 7.79349 0.727274 5.5559
985 1 6.74319 0.44723 8.07753
986 1 7.83125 0.198316 8.02594
987 1 8.54403 0.265995 7.30299
988 1 8.39654 13.1179 6.53378
989 1 4.44968 1.32352 8.18371
990 1 5.14658 2.08049 6.54527
991 1 5.0645 1.4642 7.1948
992 1 5.59116 1.39074 7.95037