data.lammps (converted from cfg to data.lammps)
    
2298  atoms
1  atom types
0.0   13.4375  xlo xhi
0.0   13.4375  ylo yhi
0.0   12.952  zlo zhi
0.0  0.0 0.0 xy xz yz
    
    
    
Atoms
  
1 1 0.0748406 13.1117 1.68987
2 1 0.637256 0.188445 12.8641
3 1 0.0398695 0.809409 1.62646
4 1 1.18411 13.2829 1.59452
5 1 1.69843 13.3547 0.844894
6 1 2.2535 0.508449 11.9917
7 1 1.16866 0.306872 2.38933
8 1 1.61899 0.992478 0.737737
9 1 2.29234 13.3436 1.71338
10 1 2.87268 1.14982 0.841472
11 1 2.25036 0.567404 2.42557
12 1 2.74688 0.10919 0.889291
13 1 3.31233 0.0386053 1.77989
14 1 4.04508 0.571564 0.122132
15 1 3.35546 0.643451 2.64669
16 1 3.86272 0.117449 0.929981
17 1 12.9246 0.768806 0.859242
18 1 1.23583 1.9989 11.2877
19 1 0.0305022 1.44309 2.4263
20 1 0.629106 0.793956 0.787276
21 1 1.1212 0.901961 1.72372
22 1 0.650438 1.30896 0.0138513
23 1 1.13018 1.89158 1.67709
24 1 1.88847 1.45099 12.8521
25 1 2.26068 1.03145 1.46764
26 1 2.37548 1.84422 12.0929
27 1 2.34597 1.45601 2.36923
28 1 2.70682 1.75213 3.37514
29 1 3.42609 1.15027 1.68408
30 1 3.86463 1.17334 0.648311
31 1 5.15548 2.01028 3.17397
32 1 4.98491 1.44488 0.811388
33 1 12.9226 1.88864 0.783412
34 1 0.66475 2.40836 0.0738325
35 1 0.0129747 2.47396 2.53421
36 1 13.4074 2.02272 1.69131
37 1 2.36038 2.11061 1.52645
38 1 1.70942 2.73582 0.0978182
39 1 1.17645 2.50697 2.38913
40 1 2.9743 2.12585 0.884355
41 1 2.90539 1.71227 12.8568
42 1 2.86263 2.75958 0.117282
43 1 2.15454 2.62645 2.44578
44 1 3.50978 2.26712 1.68208
45 1 3.30959 1.73664 2.43739
46 1 3.91842 2.94785 12.855
47 1 2.67408 2.79422 3.09728
48 1 3.97675 2.41797 0.940105
49 1 0.00652833 3.02485 1.55867
50 1 0.508267 3.08448 0.802558
51 1 0.0231985 3.5323 2.33218
52 1 1.13812 3.03753 1.65225
53 1 0.552097 1.8917 0.943122
54 1 1.71992 3.83547 12.9402
55 1 1.12021 3.60841 2.49051
56 1 1.61441 3.1807 0.923852
57 1 2.36653 3.22061 1.59869
58 1 2.83949 3.96957 0.0429834
59 1 2.13445 3.77196 2.40609
60 1 2.78289 3.35952 0.758162
61 1 3.38014 3.49814 1.66666
62 1 4.01426 4.03302 0.0415422
63 1 3.2782 4.05808 2.52725
64 1 3.85044 3.42799 0.808544
65 1 0.0762613 0.264897 2.51348
66 1 0.581613 0.257085 3.30289
67 1 1.60338 0.423766 3.33896
68 1 1.65526 13.2662 4.16131
69 1 2.71292 0.426909 3.31184
70 1 2.69568 13.3557 4.0729
71 1 3.98017 0.791235 3.18784
72 1 3.85409 0.17503 4.10363
73 1 0.503811 1.36591 3.24569
74 1 0.623415 0.822894 4.14626
75 1 1.18149 1.46936 2.65363
76 1 1.72128 0.937888 4.17712
77 1 1.69618 1.56079 3.34307
78 1 2.88659 1.05987 4.00173
79 1 3.99156 2.36258 3.93263
80 1 4.53548 1.8977 2.48153
81 1 0.465093 2.596 3.28379
82 1 0.491935 1.88379 4.01447
83 1 1.35803 2.61541 3.40855
84 1 1.64991 2.04786 4.16355
85 1 2.80549 2.28326 4.09721
86 1 3.48438 2.30254 4.75274
87 1 3.40775 2.89194 2.38369
88 1 4.44883 2.47061 4.9158
89 1 0.457941 3.77478 3.19913
90 1 0.439158 3.12889 4.12327
91 1 1.67516 3.788 3.17869
92 1 1.70148 3.24479 3.99104
93 1 2.75666 3.86768 3.23081
94 1 2.82212 3.30309 4.06113
95 1 4.03387 3.98251 3.14107
96 1 3.75137 3.08604 3.35549
97 1 4.4772 0.416925 1.63296
98 1 5.18443 0.933424 12.9423
99 1 4.70839 0.886931 2.5571
100 1 5.0012 0.351305 0.852489
101 1 5.63537 0.312451 1.48186
102 1 6.20193 0.880339 0.0471379
103 1 5.63348 0.774571 2.35489
104 1 6.23864 0.399051 0.753756
105 1 6.749 0.409164 1.59386
106 1 7.18671 0.85527 0.128583
107 1 6.72508 0.786724 2.53955
108 1 7.92747 0.263675 1.53505
109 1 7.37328 0.257757 0.785684
110 1 7.96563 1.2265 11.3649
111 1 7.84363 0.914644 2.37866
112 1 8.50176 0.200815 0.741424
113 1 4.3595 1.41107 1.65473
114 1 4.69361 1.9517 12.2979
115 1 3.79881 1.85335 3.24962
116 1 5.50634 1.4366 1.54142
117 1 6.29453 1.54456 0.930222
118 1 6.20204 2.51956 0.759091
119 1 5.75238 1.86835 2.37625
120 1 5.72648 1.90835 12.9001
121 1 6.68215 1.43264 1.67124
122 1 6.66195 2.03991 12.2008
123 1 6.79317 1.90962 2.39267
124 1 7.34487 1.4607 0.753563
125 1 7.82842 1.25567 1.46202
126 1 8.31934 1.87282 12.8562
127 1 7.76528 1.97234 2.36628
128 1 7.75825 1.77989 12.1363
129 1 4.85143 2.54844 1.38532
130 1 4.99534 3.13833 12.9377
131 1 4.39291 2.85955 2.28028
132 1 5.0788 2.42543 0.443583
133 1 5.65399 2.57235 1.66929
134 1 6.0934 3.12098 12.9269
135 1 5.70111 3.16579 2.545
136 1 6.6429 2.65071 1.52756
137 1 7.89057 2.99912 2.56084
138 1 7.82183 3.02834 12.1593
139 1 6.77434 3.05804 2.38911
140 1 7.12236 2.00588 0.0253362
141 1 7.29947 2.5579 0.934776
142 1 8.18088 2.86783 0.0854794
143 1 7.80676 3.56715 1.6477
144 1 7.93109 2.48373 1.60756
145 1 4.47568 3.54003 1.4919
146 1 5.05448 4.15836 12.9477
147 1 4.54837 4.09201 2.31228
148 1 5.12612 3.69862 0.858372
149 1 5.76134 3.64389 1.53571
150 1 6.16518 4.2427 12.8999
151 1 5.53155 4.17162 2.38801
152 1 6.21181 3.60763 0.725808
153 1 7.31843 4.20497 12.9303
154 1 6.63812 4.34839 12.1709
155 1 6.84744 3.798 1.59276
156 1 7.24524 3.65387 0.705529
157 1 7.86586 4.14666 2.49288
158 1 8.39082 4.01972 0.015179
159 1 8.55777 4.06707 3.01925
160 1 8.41443 3.46307 0.768652
161 1 5.06364 0.818821 3.40803
162 1 5.14688 0.189609 3.99172
163 1 6.16259 0.891031 3.29496
164 1 6.26608 0.391796 4.09619
165 1 7.3561 0.812571 3.2383
166 1 7.25024 0.264774 3.98476
167 1 8.3853 0.718132 3.32403
168 1 8.42932 0.178418 4.08391
169 1 5.03577 1.51635 4.02561
170 1 4.49034 1.43525 4.87467
171 1 6.15264 1.97276 3.26633
172 1 6.23546 1.46514 4.03251
173 1 7.16535 1.94355 3.29926
174 1 7.31482 1.3997 4.12504
175 1 8.31603 1.91746 3.1739
176 1 8.5523 1.4141 3.98081
177 1 4.85301 3.03127 3.02846
178 1 5.04039 2.59385 4.05817
179 1 6.21148 3.08376 3.26033
180 1 6.00148 2.50979 4.0611
181 1 7.27215 3.08819 3.23568
182 1 7.25359 2.54219 4.09696
183 1 8.50553 2.97766 3.28836
184 1 8.33728 2.43056 4.00223
185 1 4.90387 3.54988 3.93789
186 1 4.58447 3.58863 4.90721
187 1 6.61294 4.33455 2.49813
188 1 6.02516 3.61436 4.00415
189 1 7.18185 4.15088 3.1108
190 1 7.31212 3.67029 4.01868
191 1 8.41087 5.25076 3.16502
192 1 7.93913 3.58467 4.94753
193 1 8.96739 0.0718824 1.59345
194 1 9.02663 0.616852 12.1857
195 1 8.92243 0.634837 2.42534
196 1 9.59541 0.0752844 0.868346
197 1 10.1437 13.2566 1.69027
198 1 10.7621 0.35002 0.0825051
199 1 10.0837 0.399052 2.35944
200 1 10.5674 13.1783 0.727128
201 1 11.201 13.2939 1.54756
202 1 11.3265 0.328916 12.1761
203 1 11.3073 0.247023 2.48971
204 1 11.8303 13.0113 0.87149
205 1 12.3729 13.1213 1.6376
206 1 11.8333 0.246285 0.121819
207 1 12.417 0.332988 2.42757
208 1 12.8711 13.0522 0.874738
209 1 8.4369 1.31585 0.752862
210 1 9.55434 2.257 0.773421
211 1 8.94276 1.20983 1.72468
212 1 9.60629 0.538169 0.0186138
213 1 9.47483 1.09256 0.956517
214 1 9.92561 2.62313 12.2712
215 1 10.1039 1.48634 2.52776
216 1 10.6183 0.87939 0.794657
217 1 11.181 0.842973 1.58953
218 1 11.7654 2.07291 0.859804
219 1 11.2912 1.24798 2.49519
220 1 11.7737 0.827046 0.799429
221 1 12.3771 0.630084 1.60803
222 1 12.4047 0.164185 12.1186
223 1 12.4084 1.2636 2.43859
224 1 0.514268 13.1595 0.853826
225 1 8.96219 2.34608 1.68891
226 1 8.93603 2.90061 12.3458
227 1 9.45548 2.76979 3.32846
228 1 10.0143 2.15124 1.67848
229 1 10.1935 1.18225 1.59723
230 1 10.0552 2.16277 11.3973
231 1 10.239 2.57519 2.50045
232 1 10.6963 2.13097 0.846741
233 1 11.3394 1.83533 1.69267
234 1 12.3378 2.43122 12.226
235 1 11.2129 2.4111 2.44052
236 1 11.7566 2.51878 12.9398
237 1 12.3732 1.76606 1.52237
238 1 11.7749 3.64417 0.00822092
239 1 12.2977 2.39377 2.44931
240 1 12.8511 1.23458 0.0460216
241 1 9.24332 2.93433 2.41662
242 1 9.39961 4.44976 0.882863
243 1 8.74694 3.53788 1.89072
244 1 9.24298 3.35341 0.970668
245 1 10.0473 3.29934 1.49785
246 1 10.535 3.73778 12.8236
247 1 10.0253 3.74797 2.43188
248 1 10.0632 3.16496 11.5056
249 1 11.104 3.02205 1.72658
250 1 12.3414 3.52462 12.095
251 1 11.1202 4.26014 1.45384
252 1 11.7487 4.10543 0.845983
253 1 12.2581 2.8659 1.62076
254 1 12.7286 3.02662 0.81123
255 1 12.3962 3.51111 2.39985
256 1 13.0066 2.46025 0.013583
257 1 9.53078 0.480172 3.1955
258 1 9.67921 13.334 4.07129
259 1 10.6449 0.336099 3.18927
260 1 10.731 13.2977 4.02806
261 1 11.924 0.0835892 3.27991
262 1 11.7282 13.0622 3.94185
263 1 12.9347 0.234323 3.26258
264 1 12.8093 13.114 4.14639
265 1 9.01772 1.83332 2.48807
266 1 9.58235 0.984564 3.97727
267 1 10.5539 1.4502 3.33394
268 1 10.7209 0.837291 4.05651
269 1 11.7341 1.32533 3.41881
270 1 11.7823 0.720015 4.00327
271 1 12.8651 1.29605 3.36415
272 1 12.9892 0.736861 4.09422
273 1 9.60596 2.25221 4.0335
274 1 9.52247 1.57582 3.30654
275 1 10.5491 2.77346 3.33624
276 1 10.7269 2.00111 3.98558
277 1 11.6077 2.54388 3.23806
278 1 11.7367 1.84324 4.12827
279 1 12.7972 2.45115 3.18044
280 1 12.8197 1.95069 4.08355
281 1 9.45089 3.9456 3.07809
282 1 9.50241 3.51399 3.987
283 1 12.8376 3.55294 3.29161
284 1 10.6107 3.33005 4.03626
285 1 11.1895 3.71515 2.30412
286 1 11.7899 2.86455 4.20384
287 1 11.7526 3.55644 3.22331
288 1 12.7751 2.96926 4.08261
289 1 13.4301 4.18299 1.64367
290 1 0.708417 4.70514 0.08787
291 1 13.3903 4.69594 2.50005
292 1 0.509046 4.15701 0.786945
293 1 1.03503 4.18434 1.6429
294 1 1.85206 4.7899 12.8482
295 1 1.17963 4.79861 2.33262
296 1 1.65742 4.3049 0.913846
297 1 2.27474 4.32161 1.66533
298 1 2.91297 5.06195 0.00202005
299 1 2.3171 4.95161 2.33648
300 1 2.76338 4.44154 0.865495
301 1 3.43516 4.5023 1.5868
302 1 3.93746 5.27376 0.0895837
303 1 3.38106 5.18757 2.49564
304 1 3.93621 4.62798 0.75632
305 1 0.188066 5.29319 1.58856
306 1 0.482323 5.92508 12.8671
307 1 13.3816 5.80422 2.32861
308 1 0.624963 5.36139 0.699221
309 1 1.14749 5.41984 1.59789
310 1 1.72739 5.91599 0.0603291
311 1 1.1508 5.99205 2.49984
312 1 1.72617 5.38838 0.819951
313 1 2.26421 5.573 1.67772
314 1 2.98785 6.10759 12.7767
315 1 2.28304 6.21066 2.42552
316 1 2.70774 5.6067 0.705163
317 1 3.36284 5.55681 1.48558
318 1 4.08677 6.34003 0.0380698
319 1 3.37346 6.17047 2.30363
320 1 3.87783 5.84146 0.810045
321 1 13.4293 6.50055 1.5628
322 1 0.649147 7.02726 12.8531
323 1 13.3093 6.83829 2.43577
324 1 0.584707 6.4894 0.795385
325 1 1.05643 6.49481 1.76616
326 1 1.8094 6.98581 0.0161927
327 1 0.981175 7.13187 2.3398
328 1 1.55686 6.63808 0.886625
329 1 2.26423 6.59866 1.59426
330 1 2.82609 7.22188 0.148965
331 1 2.1489 7.31439 2.36014
332 1 2.79253 6.56201 0.681468
333 1 3.28853 6.79364 1.59859
334 1 3.90617 7.42349 0.0451539
335 1 3.24282 7.24344 2.44728
336 1 3.89102 6.90904 0.919324
337 1 13.3725 7.44507 1.63803
338 1 0.46661 8.1207 0.20256
339 1 13.4046 8.04087 2.53045
340 1 0.531448 7.53828 0.824387
341 1 1.13087 7.76463 1.7076
342 1 1.70081 8.04041 12.8917
343 1 1.04064 8.24689 2.5119
344 1 1.66458 7.66359 0.824217
345 1 2.26294 7.73632 1.61094
346 1 2.80926 8.35768 0.0781065
347 1 2.16849 8.42663 2.49493
348 1 2.80184 7.87834 0.903168
349 1 3.48726 7.87553 1.83775
350 1 3.91441 8.48504 0.107353
351 1 2.70419 9.58653 3.23199
352 1 3.86996 7.99545 0.942079
353 1 0.69208 4.70819 3.18468
354 1 0.802942 4.24351 4.08466
355 1 1.80314 4.98983 3.14026
356 1 1.82141 4.44995 3.9613
357 1 2.85365 5.04653 3.18736
358 1 2.93212 4.37294 3.94843
359 1 3.98543 5.05014 3.24365
360 1 3.90369 4.62073 4.06023
361 1 0.467649 5.6846 3.09489
362 1 0.479875 5.21461 3.99523
363 1 1.67451 6.04862 3.20771
364 1 1.52078 5.42148 4.05067
365 1 2.73968 6.1004 3.27468
366 1 2.83596 5.56475 4.05923
367 1 3.79396 6.2646 3.2669
368 1 4.04806 5.7099 4.01578
369 1 0.394431 7.00197 3.11212
370 1 0.598594 6.2551 3.85483
371 1 1.59436 7.10727 3.19227
372 1 1.72237 6.54562 4.1109
373 1 2.7146 7.30164 3.21666
374 1 2.76369 6.69827 4.11722
375 1 4.94438 7.54349 3.27916
376 1 3.27899 6.84333 4.83543
377 1 0.467002 8.20944 3.30777
378 1 0.478434 7.396 3.94957
379 1 1.55961 8.3214 3.25523
380 1 1.58384 7.62354 3.92618
381 1 3.86747 8.50892 3.19085
382 1 2.68676 7.81899 4.04377
383 1 3.92077 7.33241 3.14526
384 1 3.75713 7.89257 4.11252
385 1 4.49978 4.75495 1.60129
386 1 5.20171 5.30181 12.9044
387 1 4.38912 5.31973 2.36645
388 1 4.98109 4.7905 0.890728
389 1 5.5375 5.31468 2.49595
390 1 6.16312 4.83031 0.751403
391 1 6.26298 5.43621 3.26927
392 1 5.69892 4.81033 1.56112
393 1 6.75276 4.86439 1.72848
394 1 6.71762 5.35467 12.1685
395 1 6.71597 5.38469 2.43737
396 1 7.10301 4.80667 0.721674
397 1 7.81608 4.65322 1.53388
398 1 8.40151 5.01006 12.9418
399 1 7.71335 5.23624 2.28805
400 1 8.2739 4.63789 0.886912
401 1 4.60061 5.80884 1.64852
402 1 5.12747 6.53464 0.0965933
403 1 4.44297 6.38518 2.44229
404 1 5.05794 5.90808 0.864367
405 1 5.72823 5.85589 1.68942
406 1 6.30909 6.44444 12.8583
407 1 6.1762 6.57212 3.2431
408 1 6.106 5.99894 0.881919
409 1 6.89318 6.03266 1.52643
410 1 7.27043 5.7378 0.75721
411 1 6.7497 6.52809 2.38182
412 1 7.4018 5.33856 12.7978
413 1 7.93349 5.8397 1.52422
414 1 8.66023 6.29605 12.8785
415 1 7.83448 6.33915 2.34548
416 1 8.33192 5.7188 0.653948
417 1 4.46972 6.89242 1.70523
418 1 4.90754 7.51944 12.8809
419 1 4.49918 7.52311 2.41394
420 1 5.10269 7.10519 0.909721
421 1 5.61713 6.53388 2.47844
422 1 6.06201 7.56758 12.9187
423 1 5.68781 7.2 1.76252
424 1 5.99963 6.95646 0.772078
425 1 6.61234 7.15039 1.4836
426 1 7.22591 7.5929 12.9456
427 1 6.78498 7.53938 2.35299
428 1 7.24817 6.92021 0.770485
429 1 7.69395 7.00215 1.63694
430 1 8.32995 6.86189 0.803181
431 1 7.91459 7.54768 2.33702
432 1 8.9399 6.9341 1.59991
433 1 4.47463 8.10985 1.69592
434 1 5.00374 8.63433 12.9036
435 1 4.39533 8.71351 2.4804
436 1 4.92531 8.10468 0.800476
437 1 5.56351 7.69141 2.57422
438 1 6.16225 8.79213 12.8865
439 1 5.63676 8.20953 1.6214
440 1 5.98928 8.16914 0.745186
441 1 6.69601 8.22215 1.60675
442 1 7.42352 8.78561 0.0868125
443 1 6.70883 8.65814 2.43998
444 1 7.12841 8.15658 0.746983
445 1 7.77396 8.10148 1.55392
446 1 8.27864 7.96502 0.788796
447 1 7.84266 9.20282 1.51198
448 1 8.45962 7.43749 12.9396
449 1 5.07588 5.16771 3.27153
450 1 5.12876 4.14267 3.30706
451 1 6.10015 5.99528 3.96519
452 1 6.07731 4.32182 3.33743
453 1 7.37329 5.36719 3.21355
454 1 7.36911 4.77582 3.92605
455 1 8.42557 5.76119 4.05736
456 1 8.16522 3.57722 4.0662
457 1 5.07604 5.8525 3.93508
458 1 4.56531 5.35213 5.6483
459 1 6.22277 7.10117 3.96176
460 1 6.15499 7.67891 3.30633
461 1 7.30422 6.41325 3.16496
462 1 8.29148 6.31674 6.53027
463 1 8.40514 6.27688 3.07277
464 1 7.84522 6.32527 5.60683
465 1 4.98906 8.2601 3.98574
466 1 4.97624 6.44199 3.2261
467 1 6.15861 8.82083 3.27131
468 1 5.06771 7.06369 3.97797
469 1 6.04885 8.23867 4.12293
470 1 7.3691 7.5028 3.15873
471 1 8.29243 7.4675 3.26521
472 1 8.31026 6.7684 3.93298
473 1 5.06208 8.75511 3.27171
474 1 4.45162 8.05839 4.7274
475 1 5.46194 8.08149 4.80136
476 1 6.6653 8.25412 4.98785
477 1 7.16786 8.51861 3.31905
478 1 6.58929 9.39167 4.83233
479 1 7.73829 8.63857 2.43852
480 1 8.46432 8.00359 4.10876
481 1 9.04576 4.41911 1.90762
482 1 9.4767 5.03629 12.9034
483 1 8.8858 5.17305 2.26832
484 1 10.0094 4.31544 1.63715
485 1 10.5572 3.21581 0.826654
486 1 10.1012 4.96881 12.1028
487 1 10.1749 5.01918 2.38484
488 1 10.6265 4.98573 0.0208666
489 1 10.5453 4.33479 0.609679
490 1 12.3544 4.6779 12.1543
491 1 11.1855 4.81808 2.32421
492 1 11.7537 4.73829 0.0927166
493 1 12.3625 3.97599 1.53507
494 1 13.0091 4.64061 12.843
495 1 12.2174 4.5878 2.38414
496 1 12.9696 4.13923 0.739716
497 1 8.9028 5.65273 1.4671
498 1 9.64575 6.07366 0.0751855
499 1 9.57454 5.94678 3.23537
500 1 9.59994 5.4432 0.844654
501 1 10.0977 5.55219 1.67191
502 1 10.7374 5.98291 12.9133
503 1 9.93359 6.21525 2.38617
504 1 10.5881 5.4315 0.870975
505 1 11.3514 5.25968 1.49792
506 1 11.353 5.93145 12.2204
507 1 11.0534 5.82615 2.41504
508 1 11.9562 5.32172 0.704721
509 1 12.4498 5.05907 1.62405
510 1 12.9592 5.71809 12.9399
511 1 12.3042 5.68549 2.30787
512 1 12.9685 5.18392 0.82443
513 1 8.9962 6.32294 2.38663
514 1 9.49889 7.35867 0.169895
515 1 8.93165 7.36059 2.40147
516 1 9.43417 6.68393 0.876971
517 1 10.1049 6.66202 1.47776
518 1 10.7085 7.20984 0.0727838
519 1 10.0229 7.18366 2.50813
520 1 10.5881 6.56337 0.727804
521 1 11.1522 6.32549 1.62893
522 1 11.7876 7.12593 12.908
523 1 11.1825 6.86373 2.40919
524 1 12.8179 6.35002 0.736888
525 1 12.2934 6.29285 1.70034
526 1 12.3322 6.85725 12.2407
527 1 12.2045 6.92574 2.3494
528 1 12.961 6.91248 0.0441563
529 1 9.03879 7.89191 1.50722
530 1 9.95692 8.12196 12.1678
531 1 8.2446 8.54746 3.31685
532 1 9.65288 7.9593 0.804314
533 1 10.1892 7.71397 1.70842
534 1 10.5963 8.36354 12.894
535 1 9.97327 8.2033 2.54518
536 1 10.6801 7.71995 0.784525
537 1 11.1765 7.60694 1.75822
538 1 11.7579 7.4841 0.986751
539 1 11.241 8.09311 2.4436
540 1 11.7026 6.50857 0.851211
541 1 12.4638 7.53545 1.64117
542 1 12.7082 8.1637 0.0305846
543 1 12.7301 7.96662 3.27573
544 1 12.7906 7.56133 0.64397
545 1 9.5114 5.01212 3.10015
546 1 9.47908 4.48323 4.0572
547 1 10.5762 4.72101 3.21755
548 1 10.6491 3.72948 3.18023
549 1 11.668 4.70364 3.27627
550 1 11.6562 4.02518 4.03008
551 1 12.8475 4.68379 3.1525
552 1 12.9913 4.12011 3.90566
553 1 9.49385 6.55823 3.92526
554 1 9.40082 5.41382 4.27806
555 1 10.548 5.92148 3.2134
556 1 10.6546 5.46464 3.99069
557 1 11.6938 5.69243 3.12264
558 1 11.6583 5.2766 4.04291
559 1 12.7773 5.83416 3.22935
560 1 12.8665 5.20906 4.00984
561 1 9.44883 8.34817 3.19338
562 1 9.3937 7.22591 3.3354
563 1 10.7015 7.06571 3.2553
564 1 10.6297 6.61878 4.13765
565 1 11.7383 6.8943 3.19659
566 1 11.7324 6.44656 3.91636
567 1 12.8069 6.85519 3.20899
568 1 12.7972 6.37369 4.0661
569 1 8.76081 8.42088 2.4445
570 1 8.95678 8.00319 4.90066
571 1 10.6747 8.21258 3.16695
572 1 10.5443 7.65903 4.00769
573 1 12.3216 8.08573 2.4562
574 1 11.7097 8.70808 4.07019
575 1 12.8358 7.41913 4.06502
576 1 12.3189 7.57182 4.86893
577 1 13.4123 8.5713 1.65413
578 1 0.570259 9.39897 12.9512
579 1 0.475415 9.27267 3.29057
580 1 0.466562 8.84056 0.724133
581 1 1.08393 8.76546 1.55735
582 1 1.62926 9.39738 0.0792058
583 1 1.17087 9.27374 2.42928
584 1 1.56185 8.80378 0.713061
585 1 2.18041 8.92482 1.67951
586 1 2.78933 9.4876 0.051453
587 1 2.19722 9.46884 2.52047
588 1 2.60451 8.97786 0.839358
589 1 3.34661 8.90096 1.57897
590 1 3.87015 9.73004 0.0776013
591 1 3.25061 8.48696 2.56241
592 1 3.99361 9.13454 0.869242
593 1 13.4106 9.1047 2.35043
594 1 0.426561 10.3543 12.8774
595 1 13.3847 10.3009 2.4639
596 1 0.453247 9.9396 0.946159
597 1 1.12128 9.74822 1.60157
598 1 1.61234 10.4534 0.126486
599 1 1.079 10.2809 2.49523
600 1 1.65195 9.99866 0.908319
601 1 2.34943 10.089 1.55372
602 1 2.71257 10.6476 12.9046
603 1 2.2117 10.5109 2.36348
604 1 2.82175 10.1826 0.772273
605 1 3.35065 9.90428 1.69808
606 1 3.88613 10.7348 0.0740863
607 1 3.26611 10.7577 2.46084
608 1 3.84272 10.2915 0.934283
609 1 13.4371 10.8624 1.78422
610 1 0.600828 11.4512 12.8872
611 1 13.4319 11.5467 2.38436
612 1 0.538598 10.8884 0.887149
613 1 1.13314 10.9433 1.726
614 1 2.33713 11.8718 12.3626
615 1 0.964747 11.5819 2.47637
616 1 1.61325 11.0731 0.811302
617 1 2.18066 11.3096 1.58849
618 1 2.78581 12.3559 0.734632
619 1 2.27625 11.6704 2.43895
620 1 2.82568 11.2191 1.02544
621 1 3.42977 11.1984 1.75055
622 1 3.93158 11.9551 0.0675957
623 1 3.33965 12.0682 2.34425
624 1 3.88758 11.3581 0.792107
625 1 13.3275 11.9478 1.59043
626 1 0.563672 12.5172 0.063751
627 1 0.0295511 12.5366 2.40612
628 1 0.525095 11.9629 0.870957
629 1 1.22181 12.0797 1.60945
630 1 1.8098 0.378528 12.8903
631 1 1.11818 12.626 2.44163
632 1 1.68962 12.2526 0.704378
633 1 2.25079 12.4037 1.64001
634 1 1.65734 12.8184 12.914
635 1 2.21665 12.8578 2.52691
636 1 2.78621 12.9978 0.0647972
637 1 3.2978 12.3124 1.48334
638 1 3.87652 12.9361 12.823
639 1 3.53273 12.9837 2.53735
640 1 3.93786 12.6201 0.945971
641 1 0.600654 9.79193 4.0318
642 1 0.561108 8.57823 4.21996
643 1 1.54813 9.45844 3.33651
644 1 1.68289 8.83001 4.0458
645 1 2.72584 8.37502 3.34843
646 1 2.76319 9.03454 4.04922
647 1 3.40744 9.52728 2.52495
648 1 3.84566 9.70173 3.33271
649 1 0.53985 10.4597 3.27702
650 1 13.4347 9.66694 4.83813
651 1 1.69812 10.5903 3.17938
652 1 1.68239 10.0904 4.09428
653 1 2.79929 10.648 3.20811
654 1 2.78488 10.1404 4.13363
655 1 3.9315 10.7634 3.31339
656 1 3.94264 10.2944 4.18806
657 1 0.474424 11.429 3.261
658 1 0.710747 10.999 4.14482
659 1 1.72873 11.6707 3.02572
660 1 1.66255 11.2497 4.00859
661 1 2.8973 11.7191 3.29768
662 1 2.69347 11.1494 4.00704
663 1 3.91805 11.8137 3.24247
664 1 3.91792 11.3026 4.14196
665 1 0.405344 13.1533 4.15975
666 1 0.43208 12.6485 3.29016
667 1 1.5901 12.8318 3.32619
668 1 1.75799 12.1896 3.98423
669 1 2.81029 12.8299 3.22334
670 1 2.75385 12.2835 4.13986
671 1 3.96104 13.1092 3.32514
672 1 3.90589 12.4184 4.07408
673 1 4.53999 9.25645 1.73023
674 1 4.84169 9.78168 0.0919689
675 1 4.46333 9.83202 2.58184
676 1 5.02757 9.14157 0.837526
677 1 5.59241 9.34246 1.65246
678 1 6.02773 10.9494 12.9125
679 1 5.68738 9.9102 2.39238
680 1 6.12848 9.37341 0.774501
681 1 6.69196 9.28003 1.70748
682 1 7.22495 9.82094 12.9426
683 1 6.77425 9.86741 2.4894
684 1 7.19596 9.22038 0.848088
685 1 8.52885 9.14649 0.796527
686 1 8.48355 9.6795 0.0253041
687 1 7.84104 10.2127 1.65046
688 1 8.42987 8.64225 12.9261
689 1 4.4498 10.354 1.67933
690 1 4.94843 10.7726 0.0728353
691 1 4.42114 10.8617 2.49202
692 1 5.01797 10.3266 0.943323
693 1 5.60822 10.4914 1.66598
694 1 5.60372 11.0284 12.0928
695 1 5.4504 11.0564 2.35119
696 1 6.05041 9.86044 12.8622
697 1 6.07853 10.4079 0.814806
698 1 7.10764 10.9388 12.9435
699 1 6.67191 11.0397 2.45326
700 1 6.77801 10.3576 1.64705
701 1 7.14415 10.3615 0.806148
702 1 8.29149 10.8014 0.0620975
703 1 8.00304 10.7901 2.48081
704 1 8.29045 10.1617 0.805608
705 1 4.41857 11.4417 1.61299
706 1 5.08725 12.0033 12.8649
707 1 4.39924 11.9475 2.44308
708 1 5.04496 11.4435 0.809019
709 1 5.55661 11.6425 1.55901
710 1 6.25633 12.0063 0.0911193
711 1 5.68339 12.0905 2.49128
712 1 6.13653 11.486 0.904513
713 1 6.81625 11.5018 1.66371
714 1 7.25351 12.13 0.0098516
715 1 6.75655 12.0906 2.41307
716 1 7.27338 11.4906 0.774872
717 1 7.91731 11.3226 1.65102
718 1 8.45101 11.8967 12.8706
719 1 7.77773 12.0261 2.2835
720 1 8.27461 11.4571 0.845635
721 1 4.60221 12.6054 1.66135
722 1 5.0685 13.2052 0.0846126
723 1 4.60568 13.2532 2.34351
724 1 4.93022 12.602 0.705317
725 1 5.57397 12.7008 1.65834
726 1 6.30109 13.0836 0.0298108
727 1 5.66314 13.1599 2.49681
728 1 5.98165 12.6834 0.79067
729 1 6.59404 12.6796 1.51554
730 1 7.3333 13.145 0.0104074
731 1 6.70566 13.2329 2.31368
732 1 7.26206 12.5408 0.922116
733 1 7.85512 12.6478 1.65477
734 1 8.42 12.9159 0.0931564
735 1 7.67261 13.2904 2.43733
736 1 8.49395 12.458 0.883174
737 1 5.13009 9.75303 3.18383
738 1 4.98182 9.35902 4.21615
739 1 6.15396 10.0122 3.24749
740 1 6.13993 9.3175 4.02375
741 1 7.79153 9.63572 2.55232
742 1 7.19037 9.14543 4.13164
743 1 8.5502 9.68786 3.15774
744 1 8.86363 9.17803 4.84014
745 1 5.09682 10.8653 3.40974
746 1 4.98741 10.259 4.05268
747 1 6.2562 10.9679 3.27989
748 1 6.23501 10.4036 4.05137
749 1 7.36758 10.9392 3.05194
750 1 7.30311 10.3473 3.94089
751 1 8.52064 10.8129 3.23891
752 1 8.30339 10.2261 3.98156
753 1 5.04649 12.0436 3.0971
754 1 5.05251 11.5903 3.95713
755 1 6.12328 12.1871 3.26953
756 1 6.17304 11.6751 3.94953
757 1 7.25874 12.0038 3.37046
758 1 7.21982 11.3214 4.06454
759 1 8.19115 11.9125 3.12236
760 1 8.25916 11.4718 3.97248
761 1 4.99266 13.0489 3.217
762 1 4.99175 12.5985 4.04579
763 1 6.14295 13.2054 3.20366
764 1 6.10697 12.7572 4.19676
765 1 7.20687 13.0518 3.20184
766 1 7.31521 12.5898 4.07463
767 1 8.44708 13.1105 3.18127
768 1 8.43035 12.5742 3.9479
769 1 8.97245 8.93217 1.67538
770 1 9.55029 9.04762 0.750675
771 1 8.83344 9.58514 2.19789
772 1 9.71139 9.47627 12.7794
773 1 10.0602 8.7227 1.64654
774 1 10.1326 9.3627 12.0145
775 1 9.96173 9.31846 2.38318
776 1 10.5851 8.90095 0.790181
777 1 11.0751 8.87497 1.77527
778 1 11.8495 9.14024 0.0395713
779 1 11.1729 9.35926 2.52229
780 1 11.6086 8.50915 0.827121
781 1 12.1201 8.73334 1.60149
782 1 12.9619 9.13168 12.8433
783 1 12.3548 9.11757 2.41099
784 1 12.8675 8.61397 0.977447
785 1 8.93457 10.1713 1.53937
786 1 9.44414 10.5473 12.8968
787 1 9.12922 10.66 2.36847
788 1 9.61762 9.99078 0.849909
789 1 10.2075 9.95653 1.53293
790 1 11.0861 9.86654 1.40145
791 1 10.0761 10.4746 2.37599
792 1 10.6995 9.41167 0.136636
793 1 11.6381 9.76378 0.731332
794 1 11.6728 10.4594 0.0154275
795 1 11.817 10.3904 3.30996
796 1 12.6894 9.69848 0.798632
797 1 12.2148 9.79379 1.62518
798 1 12.7306 10.2545 12.9129
799 1 12.2378 10.3279 2.31898
800 1 13.3423 9.66776 1.58877
801 1 8.98083 11.2368 1.60903
802 1 9.50394 11.7068 0.0622442
803 1 8.85178 11.9064 2.51248
804 1 9.36789 11.0848 0.695895
805 1 10.0159 11.1937 1.58052
806 1 10.6192 11.4046 0.0217402
807 1 10.1007 11.6061 2.55163
808 1 10.4957 10.9207 0.791985
809 1 11.0776 10.9973 1.56886
810 1 11.7418 11.5821 12.8537
811 1 11.1528 11.377 2.3615
812 1 11.7254 10.9193 0.819722
813 1 12.3377 10.9574 1.53475
814 1 12.93 11.3425 0.145692
815 1 12.2056 11.3669 2.45571
816 1 12.9345 10.676 0.768731
817 1 9.046 12.339 1.60212
818 1 9.46191 12.9449 12.9446
819 1 8.89087 12.9428 2.3726
820 1 9.59381 12.3344 0.775408
821 1 10.1698 12.15 1.6139
822 1 10.7682 12.6503 12.881
823 1 9.95455 12.7238 2.40392
824 1 10.6413 12.0367 0.730179
825 1 11.1688 12.1567 1.59567
826 1 0.051638 12.5253 12.136
827 1 11.2253 12.6345 2.51375
828 1 11.7398 11.9456 0.791787
829 1 12.2908 12.0009 1.6852
830 1 11.8418 12.6051 12.9113
831 1 12.2807 12.4895 2.47145
832 1 12.7922 11.8672 0.805526
833 1 9.39354 9.35638 3.21443
834 1 10.0177 8.85801 4.85893
835 1 10.5207 9.27425 3.26991
836 1 10.5373 8.71462 4.03055
837 1 11.207 10.3083 2.37853
838 1 11.685 7.95741 3.33833
839 1 12.9117 9.16272 3.29996
840 1 12.8105 8.6417 3.99252
841 1 9.57973 10.4831 3.23932
842 1 9.4776 10.004 4.09275
843 1 10.7578 10.4145 3.1584
844 1 10.6578 9.86768 4.02529
845 1 11.6155 9.82275 4.00727
846 1 11.7819 9.17879 3.18551
847 1 12.781 10.244 3.20864
848 1 12.8048 9.82354 4.07356
849 1 9.48749 11.7182 3.2295
850 1 9.49976 11.1137 3.96514
851 1 10.7213 11.5738 3.36268
852 1 10.6139 10.9849 4.01586
853 1 11.8186 11.4631 3.30935
854 1 11.8379 10.9094 4.17794
855 1 12.9395 11.4331 3.23373
856 1 12.9621 10.8561 4.09129
857 1 9.40061 12.7932 3.25425
858 1 9.42692 12.2041 4.03439
859 1 10.5367 12.7246 3.18119
860 1 10.5049 12.1759 3.95831
861 1 11.6396 12.326 3.36727
862 1 11.8548 11.9849 4.26901
863 1 12.7752 12.6292 3.16052
864 1 12.9169 12.0587 4.01482
865 1 13.2879 13.0487 4.94634
866 1 13.3298 0.146564 5.67987
867 1 0.98723 13.1866 4.86377
868 1 1.14621 0.275818 5.70732
869 1 2.15873 13.326 5.06383
870 1 2.24391 0.466412 5.82025
871 1 3.24788 0.0666778 4.95838
872 1 3.40188 0.762187 5.57558
873 1 0.00897046 0.717884 5.0328
874 1 13.4113 1.35541 5.66048
875 1 1.18658 0.870172 4.90798
876 1 1.16535 1.49112 5.70675
877 1 2.35972 0.945132 4.83116
878 1 2.07972 1.57479 5.51751
879 1 3.30159 1.32673 4.85725
880 1 3.31316 1.86646 5.78785
881 1 13.3938 1.88023 4.83
882 1 13.4173 2.4254 5.63421
883 1 1.02139 2.03621 4.87138
884 1 1.0325 2.56428 5.83854
885 1 2.20554 2.22581 4.88913
886 1 2.15499 2.67293 5.57856
887 1 3.28867 2.84602 5.66053
888 1 3.88217 3.02836 6.55505
889 1 13.4087 3.05567 4.92157
890 1 0.199056 3.66829 5.607
891 1 1.23968 3.002 4.7928
892 1 1.16135 3.50665 5.70466
893 1 2.24559 3.38077 4.74038
894 1 2.28927 3.80981 5.67009
895 1 3.40685 3.37093 4.969
896 1 3.43796 3.99477 5.62855
897 1 0.291035 13.1254 8.21223
898 1 0.51693 0.290539 6.47152
899 1 0.644769 13.3882 7.27954
900 1 1.29822 13.1622 8.13259
901 1 1.65211 0.370668 6.54997
902 1 1.75973 13.2471 7.2314
903 1 2.38686 13.3398 8.21328
904 1 2.83311 0.515049 6.4889
905 1 2.71596 0.0483857 7.39023
906 1 3.44163 0.00284135 8.12668
907 1 3.91535 0.701077 6.49469
908 1 3.80973 0.213881 7.34376
909 1 0.0298552 0.79614 8.27437
910 1 0.53739 1.28471 6.40133
911 1 0.506199 0.953336 7.4187
912 1 1.17415 0.904251 8.19842
913 1 1.63412 1.41786 6.52615
914 1 1.61704 0.927558 7.41723
915 1 2.23647 1.1086 8.10614
916 1 2.69146 1.58897 6.39164
917 1 2.84596 1.13551 7.3976
918 1 3.37786 0.545712 8.90096
919 1 3.8924 2.43162 7.32815
920 1 3.87859 1.30952 7.32143
921 1 0.0939713 1.8356 8.15323
922 1 0.482393 2.49244 6.56102
923 1 0.739634 1.88181 7.18696
924 1 1.10445 2.09015 8.13103
925 1 1.66937 2.58333 6.51084
926 1 1.70336 2.1154 7.33821
927 1 2.2689 2.24887 8.10013
928 1 2.70521 2.83953 6.52461
929 1 2.82847 2.12623 7.27655
930 1 3.37781 1.8906 8.77824
931 1 3.33273 3.55324 8.15378
932 1 3.35514 2.48947 8.11636
933 1 0.161955 2.99977 8.10293
934 1 0.534603 3.77734 6.59175
935 1 0.624509 3.14627 7.13786
936 1 1.1588 3.20009 8.07912
937 1 1.66933 3.69735 6.50799
938 1 1.75341 3.23008 7.35249
939 1 2.29252 3.18712 8.12847
940 1 2.87584 3.85154 6.37184
941 1 2.86197 3.33742 7.27317
942 1 3.33218 4.19089 8.89804
943 1 4.49635 4.25383 5.615
944 1 3.8992 1.868 6.48744
945 1 4.42037 0.23602 4.72889
946 1 4.42009 0.804487 5.61819
947 1 5.48156 0.398923 4.86797
948 1 5.59528 0.930106 5.81262
949 1 6.61558 0.376077 4.9516
950 1 6.81284 0.956957 5.60472
951 1 7.76137 0.284643 4.74583
952 1 8.52224 0.808509 6.53119
953 1 3.97735 1.25871 4.12754
954 1 3.93712 3.67022 4.19035
955 1 5.64763 1.38498 4.83082
956 1 5.70415 1.85319 5.72108
957 1 6.72418 1.64595 5.01566
958 1 6.78243 3.16493 5.49354
959 1 7.87145 1.28468 4.7767
960 1 7.84738 1.8527 5.64879
961 1 4.43073 1.89191 5.7071
962 1 5.07503 3.58026 7.24752
963 1 5.54607 2.43044 4.9806
964 1 5.12388 3.19111 6.41766
965 1 6.64605 2.57734 4.77416
966 1 6.77388 4.31654 5.62881
967 1 7.79835 2.4489 4.86739
968 1 7.95118 2.99006 5.59741
969 1 5.66142 3.81844 4.82576
970 1 3.93376 4.12315 6.55945
971 1 5.04719 4.60599 4.1241
972 1 5.73929 4.85993 4.80269
973 1 6.71655 3.83694 4.71696
974 1 6.84119 4.83488 4.99486
975 1 7.86055 4.23735 5.78188
976 1 8.46567 4.06385 6.43644
977 1 4.4772 0.302165 8.14696
978 1 4.93715 0.879754 6.52453
979 1 5.05399 0.212705 7.26347
980 1 5.5884 0.359444 8.0649
981 1 6.2626 0.990091 6.45225
982 1 6.13326 0.433468 7.31341
983 1 6.76772 13.2975 8.96427
984 1 7.96038 0.746887 5.74318
985 1 6.8155 0.334888 8.08982
986 1 7.88474 0.250624 8.22863
987 1 8.44222 0.271944 7.19943
988 1 8.37782 12.9891 6.48689
989 1 4.45261 1.3309 8.07476
990 1 4.97663 2.05865 6.3969
991 1 5.13205 1.39785 7.17257
992 1 5.48359 1.49721 8.21258