data.lammps (converted from cfg to data.lammps)
    
2298  atoms
1  atom types
0.0   13.4375  xlo xhi
0.0   13.4375  ylo yhi
0.0   12.952  zlo zhi
0.0  0.0 0.0 xy xz yz
    
    
    
Atoms
  
1 1 0.0585953 13.0206 1.59007
2 1 0.396037 0.397034 0.0676583
3 1 13.3168 0.700094 1.58459
4 1 1.13291 13.1291 1.66942
5 1 1.68326 13.2841 0.773418
6 1 1.32415 13.1427 11.317
7 1 1.01101 0.363123 2.44481
8 1 2.30966 1.1571 1.62083
9 1 2.14438 0.00533603 1.59359
10 1 2.76033 13.3514 0.816138
11 1 2.22181 0.519827 2.42796
12 1 2.85099 0.606632 0.00845067
13 1 3.45177 12.9835 2.44754
14 1 3.90844 0.823935 12.8927
15 1 3.38716 0.686504 2.40743
16 1 3.29552 0.134888 1.64125
17 1 12.7807 0.699713 0.833149
18 1 1.10339 2.05834 11.2849
19 1 13.3548 1.22137 2.42913
20 1 0.640023 0.674607 0.929301
21 1 1.13113 0.914013 1.6701
22 1 0.535596 1.40681 12.8613
23 1 1.06553 2.00545 1.75457
24 1 1.56238 1.53482 12.9066
25 1 1.67681 0.90543 0.833301
26 1 2.12873 1.51684 12.1361
27 1 2.17964 1.71864 2.37629
28 1 2.82622 1.57033 3.20882
29 1 3.26895 1.22429 1.55153
30 1 3.78814 1.43983 0.754973
31 1 5.06927 2.16815 3.2037
32 1 5.63326 0.445651 1.53174
33 1 12.8146 1.80255 0.791489
34 1 0.543035 2.60092 0.0594025
35 1 0.0247406 2.39362 2.46531
36 1 0.0688329 1.83451 1.67938
37 1 2.16762 2.20552 1.39331
38 1 1.80033 2.68132 0.019411
39 1 1.20709 2.51492 2.58997
40 1 2.82204 2.27665 0.792708
41 1 2.61904 1.21289 0.667901
42 1 2.83542 2.81641 12.8285
43 1 2.17835 2.67482 2.4002
44 1 3.20953 2.33333 1.62529
45 1 3.3356 1.85777 2.32213
46 1 3.99534 2.43653 0.746114
47 1 2.83854 2.7464 3.12597
48 1 3.78714 1.84338 12.8566
49 1 0.112861 3.07329 1.63255
50 1 0.790817 3.03916 0.821347
51 1 0.00129975 3.44218 2.48883
52 1 1.1297 3.04334 1.72478
53 1 0.408796 1.70679 0.827124
54 1 1.65078 3.75188 0.0205809
55 1 1.10597 3.66996 2.45582
56 1 1.72865 3.27292 0.894759
57 1 2.35019 3.31306 1.65626
58 1 2.81307 3.95503 0.0551341
59 1 2.17339 3.79378 2.51416
60 1 2.81029 3.35017 0.692831
61 1 3.35052 3.6545 1.60212
62 1 4.37674 4.25817 12.1846
63 1 3.41901 3.99455 2.609
64 1 3.90103 3.42104 0.802861
65 1 13.434 0.173268 2.44608
66 1 0.737789 0.199872 3.3422
67 1 1.74772 0.390229 3.16754
68 1 1.72567 13.1967 4.13351
69 1 2.83011 0.642028 3.12119
70 1 2.82468 0.0943792 3.9996
71 1 3.96166 1.87663 3.06202
72 1 3.98044 0.760393 3.18244
73 1 0.609364 1.38623 3.18294
74 1 0.578136 0.97013 3.93445
75 1 1.21109 1.38214 2.47377
76 1 1.79106 0.768414 4.03334
77 1 1.74145 1.52181 3.3314
78 1 2.12256 1.02891 4.92839
79 1 3.95136 2.30488 4.058
80 1 4.53696 1.80948 2.31696
81 1 0.624888 2.60477 3.23208
82 1 0.596044 1.9432 3.97243
83 1 1.74775 2.76189 3.39447
84 1 1.82773 2.05709 3.98707
85 1 2.93615 2.19256 4.04733
86 1 3.33886 2.38143 4.90342
87 1 3.31791 3.05231 2.30748
88 1 4.49487 2.4547 4.91785
89 1 0.566685 3.75227 3.30058
90 1 0.63756 3.1311 4.0596
91 1 1.69764 3.82724 3.32802
92 1 1.70671 3.21326 4.15523
93 1 2.71022 3.94935 3.25121
94 1 2.91739 3.24403 3.9666
95 1 3.97233 4.04704 3.26715
96 1 3.89107 2.83985 3.15138
97 1 4.49957 0.174683 1.56755
98 1 5.06126 0.241491 0.763602
99 1 4.39874 1.3925 1.49452
100 1 5.59074 1.43886 1.50808
101 1 5.57336 0.853915 2.36703
102 1 6.13242 0.904606 12.9465
103 1 5.01212 13.1628 3.20355
104 1 6.68065 0.376621 1.55214
105 1 6.70038 1.35173 1.45777
106 1 7.26472 0.671629 12.9237
107 1 6.66113 0.917992 2.5178
108 1 7.86689 0.21832 1.59573
109 1 7.41316 0.382435 0.830741
110 1 7.68442 1.32945 11.2406
111 1 7.78174 0.775291 2.3432
112 1 8.46667 0.201223 0.751716
113 1 4.96135 0.926934 12.89
114 1 4.47152 1.85329 12.0533
115 1 3.88465 1.3756 4.01066
116 1 4.9299 1.35965 0.704437
117 1 6.05963 2.09832 12.7517
118 1 6.26102 2.56416 0.760337
119 1 5.57917 1.85693 2.4253
120 1 4.98894 2.07943 5.21958e-05
121 1 6.08128 1.60351 0.667796
122 1 6.7469 2.08316 12.2464
123 1 6.66051 1.90174 2.24906
124 1 7.22469 1.49746 0.71688
125 1 7.81933 1.46489 1.63217
126 1 8.39367 1.8117 12.8819
127 1 7.86559 1.83302 2.5235
128 1 7.78804 1.95641 12.138
129 1 4.42788 2.53183 1.58522
130 1 5.12508 3.17904 0.0979871
131 1 4.41629 3.15818 2.32029
132 1 4.9696 2.54086 0.828875
133 1 5.65794 2.62567 1.57077
134 1 6.13236 3.28998 0.116849
135 1 5.49649 2.95288 2.47862
136 1 6.72564 2.54736 1.55497
137 1 7.86579 2.94842 2.44334
138 1 7.81295 3.05851 12.2252
139 1 6.76696 3.0441 2.4012
140 1 7.29547 1.98512 0.0435512
141 1 7.32982 2.78031 0.756079
142 1 8.39551 2.94515 0.0450452
143 1 7.98568 3.61254 1.75703
144 1 7.80988 2.47065 1.54116
145 1 4.60099 3.71314 1.68411
146 1 5.08214 4.2405 12.7699
147 1 4.58291 4.37537 2.17724
148 1 5.07581 3.70805 0.826896
149 1 5.69997 3.56475 1.59841
150 1 6.33414 4.30488 0.0402092
151 1 5.58807 4.07863 2.41209
152 1 6.23578 3.83782 0.911607
153 1 7.30859 4.18242 0.0330062
154 1 6.82054 4.24719 12.0605
155 1 6.80888 3.66167 1.57303
156 1 7.44468 3.77806 0.925687
157 1 7.8988 4.13428 2.45872
158 1 8.48906 4.15027 0.000973283
159 1 8.49607 4.09642 3.25953
160 1 8.39554 3.61993 0.771407
161 1 5.0412 0.940632 3.19677
162 1 4.47654 13.1434 2.39446
163 1 6.13584 0.90956 3.28565
164 1 6.19227 0.304713 3.96549
165 1 7.34816 0.853684 3.28895
166 1 7.18805 0.246065 4.01845
167 1 8.30335 0.665807 3.20417
168 1 8.38144 0.167465 4.1377
169 1 4.99187 1.54343 3.89011
170 1 4.47333 1.44503 4.88641
171 1 6.24086 2.05438 3.17182
172 1 6.1072 1.49617 4.02262
173 1 7.23941 1.91139 3.08913
174 1 7.21987 1.4161 4.16956
175 1 8.38008 1.9277 3.32229
176 1 8.35881 1.34919 3.93236
177 1 4.94401 3.19051 3.1732
178 1 5.04738 2.61381 4.04314
179 1 6.17214 3.06695 3.18622
180 1 6.27805 2.58547 4.00398
181 1 7.2586 3.05948 3.29819
182 1 7.47859 2.44623 4.01714
183 1 8.37076 3.00503 3.24226
184 1 8.50755 2.42226 4.03485
185 1 5.1726 3.63898 4.06802
186 1 4.506 3.56379 4.73322
187 1 6.72075 4.10461 2.41704
188 1 6.19176 3.65661 4.00639
189 1 7.27854 4.23228 3.21123
190 1 7.3557 3.70536 3.91586
191 1 8.63261 5.14096 3.35777
192 1 7.93492 3.51807 4.91262
193 1 8.90703 0.0917629 1.64572
194 1 8.95171 0.622319 12.0535
195 1 9.00753 0.799112 2.46104
196 1 9.55194 13.3946 0.93387
197 1 10.176 13.4201 1.62551
198 1 10.5472 0.371648 0.0407584
199 1 10.0284 0.601043 2.46313
200 1 10.6841 13.1964 0.696983
201 1 11.1683 13.1012 1.60881
202 1 11.1102 0.276385 12.1827
203 1 11.2147 0.27593 2.46934
204 1 11.7266 13.2541 0.792048
205 1 12.2107 13.0554 1.67353
206 1 11.658 0.27489 12.8389
207 1 12.2559 0.0969813 2.42566
208 1 12.8083 12.9559 0.849795
209 1 8.30102 1.27202 0.886704
210 1 9.99292 2.12413 1.56762
211 1 8.88168 1.19591 1.61518
212 1 9.47531 0.585153 0.0750973
213 1 9.47055 1.04454 0.910344
214 1 10.0476 2.76643 12.1248
215 1 10.1906 1.5654 2.50002
216 1 10.7448 0.864222 0.907172
217 1 11.1747 0.837795 1.78173
218 1 11.8264 1.76887 0.883133
219 1 11.1392 1.52896 2.46852
220 1 11.707 0.773898 0.886813
221 1 12.278 0.794898 1.77568
222 1 12.4026 0.240176 12.2929
223 1 12.329 1.42057 2.45684
224 1 0.630985 13.1358 0.843597
225 1 8.86552 2.28439 1.67651
226 1 8.93645 2.96357 12.2435
227 1 9.61854 2.79456 3.20861
228 1 10.1465 2.64336 2.38567
229 1 10.1081 1.05168 1.53998
230 1 9.98655 2.26496 11.3164
231 1 10.0388 3.25245 1.65528
232 1 10.6003 2.0489 0.887766
233 1 11.2578 2.01002 1.67964
234 1 12.2945 2.57461 12.2624
235 1 11.2208 2.67043 2.42103
236 1 11.6764 2.33564 0.132884
237 1 12.4113 1.9671 1.67776
238 1 11.8614 3.55658 12.9386
239 1 12.3645 2.56365 2.38476
240 1 12.8103 1.31787 12.9157
241 1 9.01624 2.95921 2.53969
242 1 9.58349 4.06093 0.0753744
243 1 9.00862 3.36789 1.71569
244 1 9.53018 2.82439 12.9293
245 1 10.6894 3.2143 0.842644
246 1 10.589 3.62978 12.8665
247 1 10.1458 4.51605 1.73645
248 1 10.1085 3.39024 11.3835
249 1 11.2333 3.75804 2.20938
250 1 12.3958 3.55789 12.0429
251 1 11.1725 4.46469 1.67396
252 1 11.7896 4.14321 0.825625
253 1 12.4111 3.03338 1.57353
254 1 13.054 2.94074 0.838567
255 1 12.404 3.5815 2.39068
256 1 12.8607 2.40449 12.9285
257 1 9.5546 0.544282 3.3378
258 1 9.53182 13.2753 4.0575
259 1 10.6024 0.40674 3.2688
260 1 10.5648 13.2577 4.01758
261 1 11.7324 0.374961 3.25767
262 1 11.7205 13.1993 4.03121
263 1 12.8364 0.197555 3.1596
264 1 12.8704 13.1112 4.06815
265 1 9.00919 1.87653 2.47171
266 1 9.42514 1.06091 4.06917
267 1 10.5749 1.58001 3.44211
268 1 10.7306 0.940789 4.11191
269 1 11.7798 1.34304 3.17162
270 1 11.8481 0.950428 4.07434
271 1 12.9449 1.2561 3.26861
272 1 12.8487 0.636283 4.10967
273 1 9.46966 2.17434 4.11147
274 1 9.57172 1.69159 3.21238
275 1 10.646 2.79587 3.2724
276 1 10.6884 2.13949 4.15126
277 1 11.7791 2.46503 3.19198
278 1 11.7742 1.99887 4.10041
279 1 12.9478 2.25317 3.30389
280 1 12.818 1.77618 4.18018
281 1 10.1326 3.85863 2.50663
282 1 9.60698 3.86538 3.35996
283 1 12.9788 3.41443 3.27682
284 1 10.6765 3.23653 4.11729
285 1 10.9376 3.85369 3.08281
286 1 11.6846 2.97002 4.01627
287 1 11.9591 3.57256 3.15353
288 1 12.8977 2.99275 4.01784
289 1 0.0323527 4.09013 1.6549
290 1 0.633274 4.83333 12.9245
291 1 0.0657798 4.67875 2.39138
292 1 0.77033 4.22534 0.830945
293 1 1.14487 4.23566 1.70425
294 1 1.69837 4.92936 0.0540361
295 1 1.20662 4.859 2.5249
296 1 1.90812 4.38064 0.817974
297 1 2.35404 4.38552 1.71004
298 1 2.97754 5.0484 0.0208082
299 1 2.40715 4.97111 2.56346
300 1 2.85451 4.49186 0.804098
301 1 3.63677 4.55374 1.60824
302 1 3.99537 5.14839 0.00307302
303 1 3.47069 5.03484 2.412
304 1 3.88459 3.99087 0.0758992
305 1 0.140352 5.33356 1.6078
306 1 0.574342 5.98758 0.0472666
307 1 0.0670437 5.75325 2.49045
308 1 0.682664 5.31918 0.776371
309 1 1.23406 5.27699 1.64288
310 1 1.57255 5.93103 12.8809
311 1 1.13097 5.9727 2.31836
312 1 1.68698 5.57463 0.869715
313 1 2.36409 5.49975 1.65273
314 1 2.7526 6.18153 0.0688701
315 1 2.3279 6.04155 2.43162
316 1 2.7891 5.65317 0.73807
317 1 3.31771 5.68385 1.632
318 1 3.95061 6.2846 12.8838
319 1 3.56618 6.1216 2.56205
320 1 3.92806 5.73848 0.851641
321 1 0.0771255 6.28864 1.60881
322 1 0.479592 6.99787 12.8508
323 1 13.4064 6.92715 2.34913
324 1 0.577854 6.45365 0.936379
325 1 1.27666 6.46527 1.59181
326 1 1.60334 7.13542 0.0598841
327 1 1.02253 7.11667 2.36127
328 1 1.77805 6.63279 0.770068
329 1 2.32943 6.62904 1.63781
330 1 2.69963 7.25755 12.921
331 1 2.20418 7.23738 2.42397
332 1 2.96571 6.80358 0.917429
333 1 3.39239 6.78403 1.71245
334 1 3.88039 7.4292 0.0689935
335 1 3.31135 7.42406 2.42587
336 1 3.94619 6.78426 0.786642
337 1 13.3598 7.50523 1.62632
338 1 0.611366 8.16448 12.8647
339 1 13.384 8.03796 2.37822
340 1 0.565586 7.50572 0.741957
341 1 1.06817 7.62473 1.58281
342 1 1.76949 8.18829 0.0373148
343 1 0.999286 8.32635 2.45497
344 1 1.60465 7.66846 0.842064
345 1 2.28102 7.7941 1.46145
346 1 2.69492 8.42299 12.9307
347 1 2.20849 8.26725 2.41011
348 1 2.88805 7.87283 0.803165
349 1 3.4219 7.98909 1.60215
350 1 3.72709 8.47895 0.0777226
351 1 2.68305 9.53885 3.10623
352 1 4.106 7.98704 0.87266
353 1 0.489798 4.72995 3.15007
354 1 0.779738 4.30669 4.15615
355 1 1.67673 5.03006 3.18154
356 1 1.77947 4.50601 4.07035
357 1 2.93643 5.03761 3.33041
358 1 2.90122 4.42931 4.05234
359 1 3.96977 5.22983 3.22145
360 1 3.99372 4.56026 4.03618
361 1 0.656748 5.95344 3.24161
362 1 0.751997 5.35085 3.93973
363 1 1.77225 6.12788 3.16372
364 1 1.81041 5.59907 4.09606
365 1 2.93648 6.24852 3.22076
366 1 2.79501 5.64227 3.95317
367 1 4.12695 6.39028 3.21179
368 1 3.85726 5.73651 4.04416
369 1 0.617518 7.10649 3.23001
370 1 0.605926 6.54997 4.13004
371 1 1.6989 7.126 3.21043
372 1 1.73682 6.63546 4.04294
373 1 2.84847 7.28068 3.2094
374 1 2.88522 6.70925 4.11603
375 1 5.09076 7.65012 3.42384
376 1 3.445 6.84455 4.87156
377 1 0.433525 8.08798 3.21888
378 1 0.60411 7.5205 4.13946
379 1 1.6309 8.22001 3.22821
380 1 1.73505 7.68691 4.0335
381 1 3.86676 8.47495 3.30279
382 1 2.75079 7.81612 3.98024
383 1 3.97362 7.42782 3.16123
384 1 3.81108 7.86803 4.14322
385 1 4.07014 4.54943 0.865024
386 1 5.10812 5.32493 12.9439
387 1 4.61127 5.22529 2.48313
388 1 5.08707 4.78085 0.744822
389 1 5.62376 5.34305 2.38204
390 1 6.177 4.87733 0.926681
391 1 6.19111 5.22051 3.15296
392 1 5.51374 4.75911 1.63268
393 1 6.75877 4.86196 1.77968
394 1 6.80963 5.499 12.2243
395 1 6.82144 5.38248 2.44395
396 1 7.36821 4.74139 1.03006
397 1 7.96489 4.84759 1.74362
398 1 8.42547 5.266 0.0209724
399 1 7.99077 5.30359 2.53521
400 1 8.54448 4.67984 0.939438
401 1 4.63674 5.53235 1.51171
402 1 5.22875 6.35598 0.0285397
403 1 4.479 6.25983 2.18478
404 1 5.04348 5.88958 0.742587
405 1 5.79937 6.00269 1.67822
406 1 6.30732 6.36799 0.136151
407 1 6.14986 6.47451 3.25618
408 1 6.24382 5.85308 0.977789
409 1 6.99595 6.02058 1.61056
410 1 7.34674 5.89719 0.83168
411 1 6.64324 6.46422 2.40861
412 1 7.43865 5.1989 0.223374
413 1 8.09472 5.95981 1.66515
414 1 8.45676 6.38338 0.0135067
415 1 7.73553 6.54025 2.42158
416 1 8.55443 5.73123 0.85623
417 1 4.4914 6.82825 1.57658
418 1 5.06204 7.55503 0.0385433
419 1 4.5215 7.4258 2.44395
420 1 5.06305 6.91947 0.817766
421 1 5.52389 6.57287 2.38819
422 1 6.08028 7.56011 12.8707
423 1 5.56728 7.16053 1.50954
424 1 6.21162 7.03949 0.831061
425 1 6.65772 7.17491 1.71474
426 1 7.22615 7.61424 0.0221724
427 1 6.50766 7.61437 2.43487
428 1 7.22235 7.05948 0.861068
429 1 7.83495 7.09986 1.54371
430 1 8.40332 6.89963 0.804367
431 1 7.66632 7.50174 2.54357
432 1 8.97692 6.83927 1.70481
433 1 4.47809 8.01058 1.74159
434 1 4.98679 8.72779 12.8067
435 1 4.37565 8.62559 2.41166
436 1 5.08064 8.19686 0.740095
437 1 5.4689 7.59096 2.54192
438 1 6.19119 8.70473 0.0425232
439 1 5.52773 8.12183 1.6578
440 1 6.0569 8.17505 0.748933
441 1 6.56341 8.29252 1.49987
442 1 7.29523 8.79855 0.015871
443 1 6.54178 8.65129 2.44193
444 1 7.18566 8.1773 0.741804
445 1 7.70322 8.14306 1.59632
446 1 8.29275 8.02641 0.831061
447 1 7.79779 9.18184 1.66203
448 1 8.49317 7.46108 0.0141191
449 1 5.12729 5.35233 3.36224
450 1 4.96565 4.21524 3.17836
451 1 6.23001 5.87289 3.89859
452 1 6.10898 4.18479 3.20975
453 1 7.41848 5.3341 3.26127
454 1 7.31465 4.7411 4.04929
455 1 8.39688 5.89267 3.94224
456 1 8.45368 3.52253 4.07537
457 1 5.07592 5.88533 4.12328
458 1 4.59102 5.22262 5.57547
459 1 6.09137 6.98551 4.13158
460 1 6.23226 7.56033 3.39677
461 1 7.19424 6.48659 3.25502
462 1 8.50064 6.29919 6.45968
463 1 8.31929 6.36268 3.13814
464 1 7.90214 6.378 5.52201
465 1 4.85823 8.21448 4.20108
466 1 5.0915 6.31049 3.18202
467 1 6.0189 8.63038 3.21122
468 1 5.00016 6.98367 4.07391
469 1 6.07462 8.19951 4.07154
470 1 7.23505 7.59778 3.37065
471 1 8.45004 7.49212 3.16315
472 1 8.43957 6.92891 3.82941
473 1 4.88359 8.64448 3.16821
474 1 4.41218 8.10932 5.01719
475 1 5.50435 8.14252 4.82955
476 1 6.61805 8.15777 4.81352
477 1 7.12005 8.80092 3.20523
478 1 6.60801 9.26564 4.76193
479 1 7.68539 8.49562 2.41309
480 1 8.35393 8.08459 3.99034
481 1 9.19378 4.07723 2.54079
482 1 9.51437 5.08932 0.0805328
483 1 9.6186 4.46439 0.972213
484 1 9.66707 5.09629 3.24049
485 1 11.1987 3.06769 1.50176
486 1 10.0697 4.99038 12.3313
487 1 10.043 5.44176 1.6279
488 1 10.7304 4.79532 0.10747
489 1 10.7438 4.22058 0.791017
490 1 12.3392 4.68398 12.1623
491 1 11.2685 4.94268 2.54253
492 1 11.8223 4.69295 0.114307
493 1 12.3529 4.15892 1.54173
494 1 12.9105 4.6343 0.077036
495 1 12.4461 4.54627 2.38553
496 1 13.0973 4.156 0.903418
497 1 9.03822 5.64344 1.75042
498 1 9.56282 6.40326 0.0393379
499 1 9.50379 6.24122 3.19769
500 1 8.97063 4.45311 1.64646
501 1 9.58371 5.66876 0.767574
502 1 10.7052 6.02758 0.0605164
503 1 10.2445 6.03208 2.33408
504 1 10.68 5.47229 0.882323
505 1 11.3117 5.43578 1.55327
506 1 11.2633 5.97109 12.1079
507 1 11.4063 5.97954 2.36861
508 1 11.8889 5.36459 0.84489
509 1 12.4188 5.2397 1.6889
510 1 13.0178 5.8034 0.0890849
511 1 12.402 5.68664 2.43404
512 1 12.9709 5.18764 0.82716
513 1 9.12821 6.21531 2.50452
514 1 9.6612 7.3616 0.0400519
515 1 8.99377 7.46547 2.27947
516 1 9.57486 6.70367 0.960383
517 1 10.1125 6.62188 1.71934
518 1 10.69 7.02621 12.913
519 1 10.1571 7.30614 2.39644
520 1 10.7124 6.5726 0.845166
521 1 11.307 6.60117 1.65137
522 1 11.9125 6.93965 12.9228
523 1 11.2342 7.09349 2.4764
524 1 12.8284 6.39695 0.765901
525 1 12.4113 6.34907 1.61274
526 1 12.4 6.89826 12.0755
527 1 12.4095 6.88007 2.53537
528 1 12.9168 6.9307 0.0700834
529 1 8.86328 8.16801 1.55469
530 1 10.1137 8.33826 12.1973
531 1 8.21768 8.60297 3.26631
532 1 9.47483 7.77781 0.894245
533 1 10.0937 7.87897 1.53761
534 1 10.5387 8.37284 0.137928
535 1 10.0203 8.36779 2.39875
536 1 10.6044 7.62566 0.741301
537 1 11.1805 7.62846 1.59737
538 1 11.7023 7.62394 0.738426
539 1 11.2153 8.11556 2.49551
540 1 11.7124 6.48765 0.803323
541 1 12.2714 7.4171 1.62124
542 1 12.7788 7.97553 12.8965
543 1 12.8217 7.96701 3.29862
544 1 12.9099 7.58599 0.854
545 1 9.13468 5.11817 2.44139
546 1 9.38994 3.28089 4.1095
547 1 10.2954 4.95013 2.66021
548 1 10.6635 4.29033 3.86754
549 1 11.9243 4.72082 3.2234
550 1 11.8025 4.08734 4.08818
551 1 12.9458 4.60113 3.38377
552 1 13.0767 4.00974 4.16706
553 1 9.56612 6.67434 3.94629
554 1 9.65288 5.56169 4.14363
555 1 10.6684 6.12257 3.24505
556 1 10.6913 5.19998 3.7416
557 1 11.7585 5.78319 3.37265
558 1 11.7903 5.0672 4.10429
559 1 12.8967 5.64773 3.28426
560 1 12.939 5.11316 4.1392
561 1 9.48026 8.44296 3.13336
562 1 9.49608 7.34526 3.08587
563 1 10.5846 7.15923 3.25677
564 1 10.6416 6.46489 4.09252
565 1 11.7965 6.8133 3.23692
566 1 11.9105 6.23328 4.12445
567 1 13.0067 6.84229 3.35471
568 1 13.0745 6.20178 3.9129
569 1 8.75307 8.44246 2.49379
570 1 8.92551 7.91392 4.87274
571 1 10.6186 8.22547 3.21655
572 1 10.5552 7.61628 4.06601
573 1 12.2704 7.94895 2.50475
574 1 11.6541 8.68239 3.99083
575 1 12.8941 7.41168 4.13446
576 1 12.3442 7.32396 4.73933
577 1 13.3328 8.74429 1.70088
578 1 0.0737877 9.26198 12.0387
579 1 0.543008 9.27738 3.41534
580 1 0.511068 8.59464 0.80082
581 1 1.01631 8.66207 1.58505
582 1 1.72938 9.31285 12.8316
583 1 1.05125 9.26752 2.51001
584 1 1.62579 8.84237 0.74969
585 1 2.10896 8.79608 1.79051
586 1 3.02995 9.414 12.8848
587 1 2.14488 9.4475 2.37913
588 1 2.64295 9.02583 0.881556
589 1 3.16859 9.00236 1.5523
590 1 4.04844 9.68662 0.139928
591 1 3.31228 8.51424 2.37045
592 1 3.87059 9.03771 0.782143
593 1 13.3904 9.22077 2.53181
594 1 0.56108 9.81363 0.747646
595 1 13.3886 10.2995 2.53745
596 1 0.56443 9.22225 0.0458718
597 1 1.1202 9.74795 1.53235
598 1 1.71727 10.5351 12.9269
599 1 1.14186 10.2999 2.37511
600 1 1.68463 9.85397 0.780585
601 1 2.09411 10.0884 1.62956
602 1 2.83776 10.6557 12.9477
603 1 2.05738 10.5209 2.48817
604 1 2.78444 10.0788 0.710846
605 1 3.18133 10.1107 1.75018
606 1 3.89528 10.8316 0.035897
607 1 3.31514 10.6972 2.45007
608 1 3.8385 10.2626 0.909071
609 1 13.4284 10.7815 1.60554
610 1 0.695465 11.9927 0.818057
611 1 0.0458625 11.3638 2.42174
612 1 0.580207 10.3176 12.9065
613 1 0.519578 10.9104 0.65449
614 1 2.78971 11.7797 0.0726865
615 1 1.19249 11.5431 2.4198
616 1 0.946894 10.9418 1.73307
617 1 2.26097 11.163 1.5838
618 1 2.76755 12.3476 0.911304
619 1 2.31042 11.7562 2.51336
620 1 1.5517 10.9797 0.843079
621 1 3.27562 11.2381 1.67512
622 1 3.71078 11.923 0.090908
623 1 3.29743 11.874 2.51735
624 1 3.95131 11.3404 0.831046
625 1 0.0222478 11.9046 1.62585
626 1 0.0657997 12.5524 12.0424
627 1 13.392 12.5668 2.41411
628 1 0.467273 12.6188 0.0434569
629 1 1.10918 12.1123 1.69485
630 1 1.50426 0.477797 12.8887
631 1 1.14284 12.733 2.52245
632 1 1.72052 12.2091 0.87501
633 1 2.22573 12.2401 1.67581
634 1 1.56988 12.7223 12.8734
635 1 2.2532 12.8704 2.40844
636 1 2.79683 12.9143 12.8825
637 1 3.39758 12.3874 1.60622
638 1 3.81195 0.250878 0.851045
639 1 3.96609 13.0504 3.20027
640 1 3.92195 12.4409 0.749003
641 1 0.56984 9.85256 4.11388
642 1 0.547171 8.54347 3.99692
643 1 1.64439 9.37286 3.30757
644 1 1.66472 8.76544 4.04222
645 1 2.78408 8.49591 3.31632
646 1 2.96877 9.0085 4.01253
647 1 3.36275 9.57258 2.42038
648 1 3.99653 9.61215 3.16608
649 1 0.510595 10.3537 3.25652
650 1 13.3598 9.82195 4.94362
651 1 1.59939 10.6311 3.34178
652 1 1.72175 9.97721 4.0334
653 1 2.63695 10.6001 3.18087
654 1 2.78483 10.0024 4.04122
655 1 3.93911 10.9278 3.20487
656 1 3.82747 10.1732 3.77661
657 1 0.502889 11.4159 3.29157
658 1 0.53673 10.9117 4.18576
659 1 1.61327 11.6608 3.27074
660 1 1.73673 11.0704 4.14845
661 1 2.7429 11.6663 3.30188
662 1 2.79152 11.1238 4.04049
663 1 3.91432 11.8183 3.29157
664 1 3.67239 11.3641 4.26695
665 1 0.458008 13.0641 3.98296
666 1 0.546139 12.3499 3.2028
667 1 1.64651 12.7377 3.29239
668 1 1.69682 12.1456 4.1313
669 1 2.83035 12.9198 3.22722
670 1 2.79504 12.4111 3.93596
671 1 3.92836 0.317456 4.02604
672 1 3.89693 12.5612 4.02426
673 1 4.38276 9.23515 1.51177
674 1 4.98658 9.84388 0.0759781
675 1 4.48739 9.77418 2.41398
676 1 5.00873 9.16439 0.767927
677 1 5.53733 9.26944 1.6028
678 1 6.03111 10.9699 12.949
679 1 5.47807 9.89712 2.36103
680 1 6.13046 9.35675 0.802695
681 1 6.66779 9.31473 1.56075
682 1 7.33004 9.95324 0.0879929
683 1 6.63502 9.81803 2.37639
684 1 7.30582 9.41212 0.813638
685 1 8.39424 9.24141 0.969904
686 1 8.43019 9.70163 0.0162467
687 1 7.81846 10.3669 1.72452
688 1 8.34246 8.68591 0.161088
689 1 4.46654 10.3349 1.57604
690 1 5.07899 11.1017 0.103553
691 1 4.426 10.7772 2.41946
692 1 5.04907 10.4349 0.791687
693 1 5.6117 10.4572 1.4819
694 1 5.59386 10.9094 12.1765
695 1 5.47711 11.1043 2.35366
696 1 6.18008 9.85768 12.9439
697 1 6.22772 10.6239 0.815573
698 1 7.29945 10.902 0.00318461
699 1 6.724 11.0029 2.49554
700 1 6.63893 10.3865 1.67456
701 1 7.33133 10.5416 0.970681
702 1 8.45012 10.8463 12.9089
703 1 7.95082 10.8798 2.43696
704 1 8.41736 10.4183 0.846092
705 1 4.49083 11.441 1.80818
706 1 4.89882 12.1872 12.8466
707 1 4.42071 12.079 2.35843
708 1 4.98612 11.5695 0.847015
709 1 5.60944 11.5928 1.62182
710 1 5.97536 12.166 12.9235
711 1 5.60313 12.7005 1.58766
712 1 6.18578 11.6563 0.801242
713 1 6.65643 11.6704 1.66394
714 1 7.32522 12.1129 12.9396
715 1 6.66093 12.1853 2.42025
716 1 7.19215 11.5409 0.768023
717 1 7.81018 11.5034 1.65602
718 1 8.30816 11.9966 0.0471657
719 1 7.68797 11.9449 2.43125
720 1 8.36537 11.3579 0.806974
721 1 4.40985 12.5684 1.50379
722 1 5.62335 13.2787 11.9959
723 1 4.33135 0.752108 2.38678
724 1 5.05964 13.2641 12.798
725 1 5.144 12.6636 0.816112
726 1 6.17346 0.408268 0.703519
727 1 5.53831 13.2431 2.36261
728 1 6.22872 12.7406 0.740216
729 1 6.62982 12.8679 1.64313
730 1 7.28165 13.1777 0.0704949
731 1 6.72652 13.3112 2.54642
732 1 7.28941 12.741 0.87533
733 1 7.83273 12.4435 1.53726
734 1 8.34665 13.0751 12.827
735 1 7.75666 13.0375 2.41994
736 1 8.43563 12.6282 0.811414
737 1 5.11185 9.80521 3.29825
738 1 5.01297 9.23976 4.03371
739 1 6.18132 9.91997 3.29992
740 1 6.08562 9.38631 4.00098
741 1 7.6461 9.59572 2.50103
742 1 7.2698 9.21463 4.00826
743 1 8.31702 9.63353 3.13068
744 1 8.90831 9.06957 4.84562
745 1 5.02266 10.9059 3.28068
746 1 4.88778 10.46 3.99969
747 1 6.01643 10.9436 3.127
748 1 6.08091 10.5018 4.13864
749 1 7.25863 10.83 3.17308
750 1 7.21324 10.3592 4.11396
751 1 8.38453 10.6555 3.3568
752 1 8.40005 10.1809 4.10217
753 1 5.55271 12.2248 2.43334
754 1 5.08302 12.0658 3.23963
755 1 6.2144 12.0283 3.19834
756 1 6.13394 11.3842 4.05352
757 1 7.26199 11.946 3.31019
758 1 7.13292 11.4439 4.06116
759 1 8.36371 11.848 3.32473
760 1 8.36472 11.3521 4.09327
761 1 5.00449 0.382552 3.98707
762 1 4.93997 12.6672 4.05067
763 1 6.08262 13.1674 3.29229
764 1 6.10935 12.537 3.99367
765 1 7.34189 13.137 3.22248
766 1 7.26043 12.5972 4.02481
767 1 8.45125 12.9897 3.23809
768 1 8.29423 12.4832 4.06369
769 1 8.84548 9.21843 1.88672
770 1 9.44826 8.90867 0.763162
771 1 9.00695 9.79553 2.44775
772 1 9.56612 9.61609 0.0286696
773 1 9.89664 9.00455 1.68914
774 1 10.1408 9.3814 12.1165
775 1 10.0963 9.53118 2.54426
776 1 10.5701 8.92829 0.748251
777 1 11.1035 8.63015 1.52981
778 1 11.795 9.33994 0.0361214
779 1 11.205 9.12159 2.41951
780 1 11.9087 8.69995 0.898981
781 1 12.2954 8.51072 1.70073
782 1 12.9071 9.08681 12.8558
783 1 12.3384 9.18366 2.45813
784 1 12.9414 8.71593 0.766317
785 1 8.98286 10.3456 1.64699
786 1 9.49511 10.7727 0.0854903
787 1 8.93861 10.9043 2.48956
788 1 9.4717 10.0438 0.86005
789 1 10.1387 9.9475 1.63009
790 1 11.144 9.62152 1.67098
791 1 10.1252 10.548 2.52493
792 1 10.7254 9.50283 0.00969987
793 1 11.6846 9.88027 0.825172
794 1 11.7472 10.3866 12.8379
795 1 11.7135 10.2522 3.2352
796 1 12.7419 9.72385 0.836203
797 1 12.3148 9.71639 1.72725
798 1 12.8059 10.3349 12.9238
799 1 12.3362 10.3061 2.42463
800 1 13.3768 9.74998 1.52497
801 1 8.91041 11.4976 1.64615
802 1 9.36786 11.8556 12.8813
803 1 8.93192 11.9259 2.54674
804 1 9.50338 11.2724 0.917983
805 1 10.0337 11.0073 1.58029
806 1 10.5299 11.5949 12.9249
807 1 10.1099 11.5985 2.37902
808 1 10.5627 10.0554 0.79558
809 1 10.7327 11.1009 0.970296
810 1 11.6527 10.8184 1.02594
811 1 11.2231 11.6127 2.55403
812 1 11.1215 10.9656 1.84405
813 1 12.3575 10.9712 1.59873
814 1 12.8044 11.4966 12.8359
815 1 12.3163 11.3289 2.64659
816 1 12.8373 10.793 0.788158
817 1 8.9529 12.5235 1.71791
818 1 9.45753 12.8671 12.9147
819 1 8.91958 13.0688 2.45214
820 1 9.51567 12.3454 0.794742
821 1 10.0114 12.1838 1.67655
822 1 10.6827 12.6525 12.9258
823 1 10.0647 12.839 2.44437
824 1 10.5552 12.1533 0.899492
825 1 11.2044 12.0914 1.68384
826 1 0.0468625 12.0051 11.3118
827 1 11.3047 12.6505 2.53538
828 1 11.7227 11.975 0.790143
829 1 12.2963 11.9607 1.56331
830 1 11.7265 12.543 0.159079
831 1 12.343 12.3626 2.46847
832 1 12.9884 11.8762 0.750685
833 1 9.43489 9.45837 3.33756
834 1 9.98701 8.98982 4.8906
835 1 10.6284 9.4229 3.23647
836 1 10.5802 8.80367 3.98892
837 1 11.2614 10.3688 2.35036
838 1 11.7672 8.02477 3.39728
839 1 12.8773 8.99074 3.2157
840 1 12.7731 8.47947 4.15596
841 1 9.54251 10.5012 3.2941
842 1 9.57188 9.97466 4.10695
843 1 10.7126 10.5327 3.28565
844 1 10.7316 9.93803 4.045
845 1 11.7882 9.65564 4.17912
846 1 11.8182 9.24309 3.21533
847 1 12.8172 10.2161 3.2885
848 1 12.8404 9.58833 4.0485
849 1 9.52127 11.6331 3.2599
850 1 9.51793 11.1109 4.01262
851 1 10.5871 11.6319 3.27522
852 1 10.611 11.0074 4.1379
853 1 11.6278 11.2867 3.3126
854 1 11.8419 10.8396 4.1366
855 1 12.9232 11.4053 3.32526
856 1 12.9521 10.731 4.02783
857 1 9.52567 12.8248 3.1836
858 1 9.51266 12.2105 3.93635
859 1 10.6659 12.6943 3.20949
860 1 10.7173 12.1551 4.11029
861 1 11.8202 12.5892 3.30741
862 1 11.8034 11.9985 3.97593
863 1 12.8859 12.5974 3.27604
864 1 12.8382 11.9857 4.09821
865 1 0.00961669 13.0658 5.00957
866 1 13.4204 0.23319 5.6962
867 1 0.961618 13.3846 4.79541
868 1 1.08471 0.329854 5.73162
869 1 2.23651 12.7692 5.79276
870 1 2.25121 13.3253 4.9043
871 1 3.26346 13.4368 4.94114
872 1 3.25652 0.548792 5.61004
873 1 13.4109 0.762116 4.90254
874 1 0.106337 1.36201 5.58349
875 1 1.07648 0.870346 4.87301
876 1 1.10563 1.55824 5.72472
877 1 2.143 0.446931 5.66585
878 1 2.22718 1.58511 5.69993
879 1 2.87323 1.12261 4.15977
880 1 3.35807 1.79594 5.61759
881 1 0.00619285 1.9882 4.82734
882 1 0.112913 2.40264 5.64962
883 1 1.18175 1.93282 4.80228
884 1 1.18628 2.54853 5.68027
885 1 2.21317 2.23963 4.85271
886 1 2.24289 2.6748 5.62196
887 1 3.37827 2.92721 5.7386
888 1 3.97892 2.93948 6.45295
889 1 0.0332242 3.04257 4.94541
890 1 0.124431 3.64957 5.65458
891 1 1.0789 2.98183 4.93106
892 1 1.35567 3.67993 5.72434
893 1 2.4105 3.24927 4.77659
894 1 2.29549 3.86265 5.69665
895 1 3.42656 3.48813 4.87868
896 1 3.40138 4.03851 5.71767
897 1 13.4087 13.1016 8.14226
898 1 0.396172 0.285312 6.55076
899 1 0.45173 13.095 7.39896
900 1 1.16429 13.1366 8.09275
901 1 1.51226 0.456313 6.53808
902 1 1.67908 13.2804 7.35242
903 1 2.32633 13.405 8.06042
904 1 2.82229 0.0318039 7.2497
905 1 3.30792 0.0127394 8.15375
906 1 3.38368 0.594312 8.83474
907 1 3.72379 0.754075 6.46732
908 1 3.95491 0.222725 7.31231
909 1 13.3981 0.936782 8.1264
910 1 0.676187 1.51658 6.55066
911 1 0.557468 0.738501 7.28714
912 1 1.71761 1.02956 7.31357
913 1 1.72169 1.58055 6.50132
914 1 2.25218 0.896522 8.13138
915 1 2.77955 1.1977 7.35964
916 1 2.84313 1.73513 6.43142
917 1 2.66651 0.618601 6.53524
918 1 2.83738 0.742051 9.74945
919 1 3.85972 2.39302 7.2732
920 1 4.0064 1.27342 7.37333
921 1 0.0224066 2.05533 8.22014
922 1 0.589734 1.96839 7.34549
923 1 1.1712 2.10996 8.15533
924 1 1.10742 1.0853 8.06963
925 1 1.6971 2.75324 6.56982
926 1 1.74424 2.08437 7.35828
927 1 2.34413 2.33706 8.33254
928 1 2.75013 2.75484 6.47882
929 1 2.76602 2.21725 7.32327
930 1 3.39047 1.72304 8.78798
931 1 3.40005 3.50294 8.02481
932 1 3.43489 2.36782 8.12653
933 1 0.0346593 3.1044 8.079
934 1 0.667071 3.52538 6.44875
935 1 0.635994 2.63038 6.67113
936 1 0.841368 3.14221 7.51598
937 1 1.78603 3.76 6.50944
938 1 1.78867 3.19475 7.48497
939 1 2.30545 3.30823 8.15922
940 1 2.79892 4.05864 6.46798
941 1 2.929 3.38903 7.18833
942 1 3.23918 4.08641 8.97846
943 1 4.59557 4.11423 5.82665
944 1 3.8609 1.84483 6.58982
945 1 4.47501 0.356555 4.79236
946 1 4.35844 0.857463 5.79176
947 1 5.58116 0.30975 4.76996
948 1 5.49447 0.981107 5.59643
949 1 6.70735 0.30349 4.92667
950 1 6.63972 0.896773 5.70154
951 1 7.78281 0.244291 4.74329
952 1 8.35733 0.760052 6.45735
953 1 3.35111 1.20009 4.89801
954 1 3.97512 3.40212 4.02358
955 1 5.51537 1.37867 4.77883
956 1 5.69731 2.06329 5.56709
957 1 6.67683 1.34598 4.86015
958 1 6.78963 3.17822 5.71883
959 1 7.94627 1.37678 4.93877
960 1 7.79872 1.96467 5.75912
961 1 4.45589 1.93839 5.728
962 1 5.05695 3.60783 7.40759
963 1 5.69776 2.59169 4.72472
964 1 5.07962 3.11719 6.49982
965 1 6.86396 2.66589 4.84552
966 1 6.80003 4.22976 5.6114
967 1 7.84816 2.42519 4.89763
968 1 8.00241 2.98709 5.72188
969 1 5.64708 3.7245 4.91517
970 1 3.94407 4.19844 6.54062
971 1 5.11171 4.73009 4.01302
972 1 5.70391 4.82508 4.84581
973 1 6.80256 3.68927 4.77148
974 1 6.78668 4.79607 4.80616
975 1 7.90665 4.11194 5.70694
976 1 8.45006 4.13702 6.48939
977 1 4.46333 0.263496 8.14376
978 1 5.02904 0.803307 6.47095
979 1 5.08865 0.302676 7.39476
980 1 5.54306 0.478668 8.0949
981 1 6.05901 0.970728 6.38474
982 1 6.08055 0.337209 7.38259
983 1 6.74126 13.4021 8.87906
984 1 7.77807 0.785536 5.6095
985 1 6.74126 0.339969 8.08553
986 1 7.84401 0.246153 8.08641
987 1 8.32862 0.152887 7.34153
988 1 8.34939 13.052 6.59937
989 1 4.57536 1.37972 8.14734
990 1 5.00562 2.00252 6.38522
991 1 4.92072 1.49522 7.16371