data.lammps (converted from cfg to data.lammps)
    
2298  atoms
1  atom types
0.0   13.4375  xlo xhi
0.0   13.4375  ylo yhi
0.0   12.952  zlo zhi
0.0  0.0 0.0 xy xz yz
    
    
    
Atoms
  
1 1 13.3738 13.1263 1.60724
2 1 0.679817 0.362305 0.0722327
3 1 0.0530607 0.779989 1.61695
4 1 1.08035 13.2115 1.63137
5 1 1.69076 13.3146 0.75592
6 1 1.1343 13.2575 11.3395
7 1 1.2067 0.402179 2.3917
8 1 2.40215 1.14328 1.74735
9 1 2.25923 0.0293683 1.62722
10 1 2.84398 0.0143109 0.936841
11 1 2.22861 0.536422 2.53836
12 1 2.84577 0.536906 0.0827357
13 1 3.38696 13.048 2.41215
14 1 3.98113 0.862745 12.7731
15 1 3.51697 0.748533 2.52854
16 1 3.38657 0.0825288 1.71494
17 1 12.8451 0.811418 0.857338
18 1 1.25806 2.11942 11.3291
19 1 0.0768413 1.36747 2.49588
20 1 0.570184 0.857558 0.905757
21 1 1.22013 0.924927 1.59854
22 1 0.692305 1.41759 0.0725379
23 1 1.11973 2.05282 1.48843
24 1 1.77833 1.54291 12.9463
25 1 1.83441 1.06763 0.900806
26 1 2.2713 1.68387 12.1885
27 1 2.15183 1.62352 2.43407
28 1 2.8459 1.823 3.00185
29 1 3.33035 1.33794 1.67232
30 1 3.85757 1.23634 0.884675
31 1 5.14705 2.00732 3.30562
32 1 5.60673 0.381988 1.64208
33 1 12.8937 1.89164 0.835512
34 1 0.534627 2.62289 0.0374713
35 1 0.127371 2.44056 2.34777
36 1 13.3909 1.85407 1.65844
37 1 2.30864 2.36633 1.66507
38 1 1.71964 2.65052 0.108845
39 1 1.13383 2.62167 2.52946
40 1 2.85269 2.33882 0.760341
41 1 2.91427 1.17783 0.718511
42 1 2.8459 2.78645 12.8557
43 1 2.25178 2.79413 2.50905
44 1 3.36941 2.35436 1.61274
45 1 3.52104 1.86799 2.52574
46 1 3.85803 2.38233 0.844014
47 1 2.84577 2.83697 3.32804
48 1 4.02359 1.88167 0.0202343
49 1 13.318 3.08071 1.72038
50 1 0.633913 3.13877 0.982781
51 1 0.0688705 3.5989 2.47662
52 1 1.24535 3.15507 1.69529
53 1 0.571798 1.97221 0.77152
54 1 1.61591 3.90988 0.0823646
55 1 1.13514 3.81333 2.40565
56 1 1.75768 3.28301 0.686738
57 1 2.25067 3.44032 1.59917
58 1 2.80818 4.04568 0.0691072
59 1 2.38887 3.83692 2.6989
60 1 2.92896 3.46139 0.740804
61 1 3.34954 3.62091 1.51454
62 1 4.6134 4.22218 12.0381
63 1 3.33673 4.1628 2.44213
64 1 4.02139 3.63116 0.759556
65 1 0.0589762 0.274497 2.542
66 1 0.615018 0.403746 3.24126
67 1 1.64173 0.412921 3.20091
68 1 1.75574 13.2925 4.07228
69 1 2.89054 0.642652 3.23891
70 1 2.84491 0.0437422 4.15176
71 1 4.05068 1.96451 3.34913
72 1 4.14372 0.814288 3.19907
73 1 0.654311 1.42296 3.28524
74 1 0.58854 0.879179 4.0942
75 1 1.15473 1.61359 2.29853
76 1 1.91666 0.95028 4.05215
77 1 1.6386 1.60321 3.26643
78 1 2.35369 1.20665 4.91715
79 1 3.87004 2.55231 3.94515
80 1 4.47164 2.04003 2.43951
81 1 0.493828 2.51168 3.22496
82 1 0.49516 1.86694 4.23027
83 1 1.78203 2.71939 3.33103
84 1 1.56924 2.15574 3.92685
85 1 2.84019 2.25558 4.04301
86 1 3.37562 2.47141 4.85977
87 1 3.34338 3.00116 2.22506
88 1 4.39085 2.61691 4.8344
89 1 0.607929 3.5858 3.26464
90 1 0.681171 2.98327 4.01121
91 1 1.75099 3.87324 3.19787
92 1 1.71837 3.34837 4.17794
93 1 3.13009 4.004 3.33147
94 1 2.69771 3.46194 4.13052
95 1 4.25552 4.20643 2.57583
96 1 3.77833 3.13383 3.12049
97 1 4.54197 0.176287 1.66997
98 1 5.05417 0.420954 0.879687
99 1 4.52669 1.43189 1.57147
100 1 5.56658 1.42092 1.50405
101 1 5.63954 0.975888 2.47032
102 1 6.05543 1.03433 0.0678958
103 1 5.01995 13.2931 3.17046
104 1 6.6353 0.316258 1.58849
105 1 6.84091 1.4369 1.63518
106 1 7.15402 0.963079 12.9103
107 1 6.66225 0.852277 2.4768
108 1 7.85617 0.191978 1.60429
109 1 7.27326 0.259242 0.879009
110 1 7.94881 1.40731 11.2838
111 1 7.89282 0.688211 2.43884
112 1 8.42523 0.243255 0.828679
113 1 4.92018 0.921962 0.0370711
114 1 4.48813 2.13672 12.1159
115 1 3.82505 1.23464 4.07127
116 1 5.14588 1.56196 0.765847
117 1 6.24224 2.0807 0.00956864
118 1 6.14172 2.74884 0.702983
119 1 5.50157 2.00152 2.42701
120 1 5.08277 2.11057 0.0306565
121 1 6.24625 1.51 0.853958
122 1 6.67301 2.02031 12.0689
123 1 6.68925 1.9379 2.43739
124 1 7.33933 1.40399 0.731433
125 1 7.85551 1.28763 1.72782
126 1 8.48535 1.79532 12.832
127 1 7.84612 1.92182 2.45942
128 1 7.89262 1.88875 12.1843
129 1 4.60113 2.48157 1.60815
130 1 5.11484 3.32532 12.8218
131 1 4.4584 3.11374 2.44816
132 1 5.02133 2.75282 0.721267
133 1 5.69884 2.55802 1.62789
134 1 6.30294 3.29794 12.7802
135 1 5.58066 3.04038 2.5321
136 1 6.67699 2.51472 1.70997
137 1 7.69771 3.00796 2.41323
138 1 7.8391 3.02438 12.1281
139 1 6.69917 3.16225 2.5047
140 1 7.34957 2.03914 12.8911
141 1 7.24269 2.37274 1.0143
142 1 8.37882 2.94684 0.100494
143 1 7.77011 3.53248 1.67508
144 1 7.8755 2.47636 1.69672
145 1 4.37443 3.59336 1.66495
146 1 5.01981 4.3983 12.8641
147 1 4.52794 4.73748 1.63336
148 1 5.05731 3.78538 0.846027
149 1 5.45623 3.75007 1.84374
150 1 6.06614 4.30822 12.9247
151 1 5.56599 4.25742 2.48724
152 1 6.04075 3.66082 0.821701
153 1 7.32463 3.97458 0.0354058
154 1 6.83363 4.38158 12.1731
155 1 6.48169 3.7394 1.71689
156 1 7.02428 3.50197 0.896359
157 1 7.9333 4.16807 2.44592
158 1 8.4165 3.948 0.0693947
159 1 8.57947 4.08609 3.32882
160 1 8.37205 3.54421 0.844055
161 1 5.04218 0.901518 3.12163
162 1 4.46779 13.0597 2.39988
163 1 6.15845 1.05552 3.38712
164 1 6.22416 0.255698 4.07395
165 1 7.24508 0.747955 3.20846
166 1 7.34896 0.287263 3.99243
167 1 8.42652 0.708323 3.27414
168 1 8.41944 0.106953 4.10113
169 1 4.98105 1.46305 4.01167
170 1 4.54979 1.52306 4.88112
171 1 6.17092 2.08859 3.35379
172 1 6.11512 1.4718 4.17587
173 1 7.33149 1.86777 3.19528
174 1 7.25466 1.40701 4.11937
175 1 8.4432 1.79927 3.22645
176 1 8.39551 1.24768 4.04421
177 1 5.04485 3.12239 3.31158
178 1 5.11924 2.56831 4.04247
179 1 6.17493 3.13277 3.27234
180 1 6.20904 2.63053 4.16811
181 1 7.3114 3.09971 3.26828
182 1 7.30645 2.44571 4.0723
183 1 8.39488 2.93865 3.37049
184 1 8.36513 2.36101 4.06255
185 1 5.0246 3.77648 4.02513
186 1 4.53766 3.67274 4.91307
187 1 6.74975 4.28879 2.44861
188 1 6.07351 3.71892 4.07745
189 1 7.43577 4.24726 3.18946
190 1 7.12944 3.60357 4.00568
191 1 8.41463 5.31714 3.25034
192 1 7.76458 3.64049 4.90707
193 1 8.98571 0.040705 1.64018
194 1 9.05146 0.641583 12.1389
195 1 8.99454 0.647671 2.38497
196 1 9.59002 13.3645 0.766806
197 1 10.1114 13.3498 1.62719
198 1 10.646 0.354247 0.0514727
199 1 10.0506 0.452879 2.53064
200 1 10.779 13.1469 0.834824
201 1 11.2294 13.1775 1.67513
202 1 11.2023 0.312281 12.1606
203 1 11.2034 0.262253 2.49639
204 1 11.876 13.1602 0.750651
205 1 12.3914 13.0137 1.54148
206 1 11.7572 0.294957 0.00159032
207 1 12.3515 0.127974 2.39392
208 1 12.9017 13.0791 0.698573
209 1 8.35764 1.2317 0.717705
210 1 10.1006 2.1159 1.72723
211 1 8.98008 1.25587 1.65841
212 1 9.65343 0.558699 0.014681
213 1 9.43507 0.995298 0.831153
214 1 10.0953 2.68346 12.2666
215 1 10.0395 1.41535 2.33921
216 1 10.7768 0.853766 0.85455
217 1 11.3029 0.842164 1.7006
218 1 11.6561 1.89318 0.856123
219 1 11.108 1.43011 2.47891
220 1 11.8385 0.845805 0.875853
221 1 12.4097 0.6827 1.67907
222 1 12.3126 0.247149 12.1605
223 1 12.3743 1.22964 2.47255
224 1 0.594345 13.1696 0.802703
225 1 8.92656 2.31042 1.5657
226 1 8.88728 2.87122 12.1794
227 1 9.50944 2.81262 3.34441
228 1 9.9366 2.66323 2.45758
229 1 10.2023 0.902508 1.47437
230 1 10.0777 2.24151 11.3744
231 1 10.1261 3.25268 1.5736
232 1 10.6382 2.13272 1.00907
233 1 11.2941 1.944 1.72193
234 1 12.2952 2.42318 12.0836
235 1 11.1474 2.54341 2.57115
236 1 11.8583 2.44202 12.9142
237 1 12.2838 1.93853 1.65337
238 1 11.7468 3.511 12.773
239 1 12.2332 2.46186 2.39664
240 1 12.9999 1.39101 12.9322
241 1 8.806 2.83656 2.45733
242 1 9.54204 3.96335 12.9293
243 1 8.9657 3.31237 1.51987
244 1 9.53868 2.8111 0.00313647
245 1 10.6989 3.09536 0.75215
246 1 10.597 3.85598 0.108113
247 1 10.1186 4.38089 1.63559
248 1 10.0162 3.25663 11.3524
249 1 11.2097 3.66001 2.45543
250 1 12.4269 3.51243 12.2051
251 1 11.2201 4.29238 1.66738
252 1 11.6956 3.96589 0.718876
253 1 12.2983 3.01856 1.68684
254 1 12.9085 2.98898 0.851988
255 1 12.3172 3.61721 2.48368
256 1 12.8705 2.41892 0.0402122
257 1 9.48292 0.505968 3.26048
258 1 9.51664 13.4026 4.00577
259 1 10.6789 0.363037 3.29371
260 1 10.6229 13.2201 4.1034
261 1 11.7912 0.369189 3.25752
262 1 11.7286 13.0624 4.01065
263 1 12.8305 0.339243 3.36042
264 1 12.9106 13.1742 4.08741
265 1 8.98775 1.71567 2.47388
266 1 9.44807 1.01531 4.08866
267 1 10.4549 1.67906 3.21597
268 1 10.5556 0.913747 3.96055
269 1 11.7442 1.4228 3.18576
270 1 11.7733 0.783828 4.15334
271 1 12.9419 1.43699 3.26614
272 1 12.9215 0.885901 3.99973
273 1 9.45557 2.18702 4.1081
274 1 9.52849 1.62075 3.34189
275 1 10.5232 2.6671 3.19683
276 1 10.7455 1.98454 4.00526
277 1 11.8617 2.55587 3.26153
278 1 11.7873 1.78347 3.98365
279 1 12.8825 2.40062 3.04584
280 1 12.7977 2.01921 4.09979
281 1 9.96345 3.87251 2.3722
282 1 9.55909 3.88574 3.26125
283 1 12.8132 3.5351 3.2786
284 1 10.7187 3.11278 4.03145
285 1 10.5515 3.7851 3.08329
286 1 11.6024 2.97654 4.07338
287 1 11.6434 3.61316 3.32025
288 1 13.0351 2.9564 3.97885
289 1 13.3253 4.21408 1.65006
290 1 0.634857 4.75204 0.0222491
291 1 0.0386723 4.70888 2.40238
292 1 0.559187 4.14391 0.939139
293 1 1.15831 4.32929 1.56869
294 1 1.65799 5.09838 0.0750193
295 1 0.975902 4.90751 2.38498
296 1 1.83149 4.45262 0.821736
297 1 2.21474 4.3233 1.66872
298 1 2.79999 5.28592 12.9383
299 1 2.12811 4.94941 2.49299
300 1 2.85812 4.59364 0.74213
301 1 3.3538 4.65644 1.61416
302 1 3.78753 5.2829 0.0504593
303 1 3.39279 5.27857 2.4139
304 1 3.99419 4.3063 12.8771
305 1 0.00542798 5.32763 1.60128
306 1 0.495103 5.92372 0.0578017
307 1 13.3499 5.83092 2.43539
308 1 0.614688 5.31575 0.793397
309 1 1.1219 5.52461 1.5725
310 1 1.60643 6.20513 12.9057
311 1 1.13823 6.04728 2.45198
312 1 1.70472 5.53194 0.909034
313 1 2.36286 5.41276 1.64532
314 1 2.73965 6.30275 0.0518563
315 1 2.25167 6.06653 2.41727
316 1 2.66527 5.83925 0.968587
317 1 3.43331 5.80379 1.59816
318 1 3.82672 6.35703 12.8368
319 1 3.37115 6.24054 2.55255
320 1 3.86766 5.85922 0.817205
321 1 0.0253982 6.3747 1.70185
322 1 0.482336 7.1135 0.135155
323 1 0.0980839 6.96415 2.44415
324 1 0.462293 6.4993 0.796746
325 1 1.09583 6.5193 1.56657
326 1 1.55278 7.30696 12.9305
327 1 1.24715 7.12853 2.37516
328 1 1.72395 6.70998 0.805649
329 1 2.25323 6.72359 1.7665
330 1 2.69818 7.29762 12.9414
331 1 2.33267 7.3371 2.34312
332 1 2.87381 6.74403 0.86956
333 1 3.34783 6.86601 1.72025
334 1 3.86977 7.47423 12.8989
335 1 3.45489 7.4369 2.46793
336 1 3.83298 7.04234 0.789729
337 1 0.0495529 7.54053 1.72984
338 1 0.694161 8.24568 0.0238148
339 1 13.4227 8.17781 2.4657
340 1 0.566014 7.73187 0.907219
341 1 1.09242 7.62292 1.59728
342 1 1.74464 8.35125 0.0109366
343 1 1.0885 8.26444 2.42942
344 1 1.71921 7.71904 0.834071
345 1 2.2593 7.99749 1.58539
346 1 2.83 8.42377 0.0585494
347 1 2.20696 8.35818 2.51962
348 1 2.87323 7.78832 0.830836
349 1 3.39043 7.94761 1.67598
350 1 3.91141 8.56826 12.8704
351 1 2.8273 9.46834 3.31728
352 1 3.97577 8.2096 0.81556
353 1 0.63147 4.68341 3.27679
354 1 0.594922 4.18199 4.19343
355 1 1.57232 4.95097 3.29171
356 1 1.65776 4.32301 4.11001
357 1 2.82429 5.12967 3.13388
358 1 2.61682 4.57251 3.92117
359 1 3.90108 5.14447 3.38664
360 1 3.88699 4.52411 3.89942
361 1 0.600625 5.85163 3.25345
362 1 0.603459 5.31694 4.09699
363 1 1.74099 6.00268 3.15833
364 1 1.73414 5.44157 4.05006
365 1 2.81829 6.22101 3.25809
366 1 2.7001 5.73697 4.06157
367 1 4.05342 6.43945 3.2173
368 1 3.86094 5.83932 3.93934
369 1 0.730002 7.03213 3.27634
370 1 0.601265 6.34298 4.01744
371 1 1.84641 7.1781 3.21656
372 1 1.64276 6.60368 4.05398
373 1 2.82295 7.17869 3.23503
374 1 2.84256 6.82651 4.14522
375 1 5.1229 7.66483 3.28627
376 1 3.39955 6.79067 4.91389
377 1 0.600534 8.06767 3.16829
378 1 0.651478 7.46747 4.20669
379 1 1.61418 8.18435 3.39113
380 1 1.80619 7.67441 4.10343
381 1 3.98531 8.59827 3.24538
382 1 2.87223 7.87537 3.96864
383 1 4.01917 7.53989 3.2162
384 1 3.78436 8.07275 4.13307
385 1 3.94823 4.71816 0.839657
386 1 4.94186 5.41166 0.0513799
387 1 4.41871 5.35381 2.48827
388 1 5.09809 4.78863 0.839887
389 1 5.62495 5.44364 2.49105
390 1 6.18524 4.74482 0.816064
391 1 6.16736 5.32543 3.29375
392 1 5.6674 4.93327 1.62822
393 1 6.72034 4.76855 1.62062
394 1 6.76753 5.40592 12.22
395 1 6.72236 5.33838 2.46065
396 1 7.23162 4.57198 0.686986
397 1 7.68937 4.65155 1.54315
398 1 8.40223 5.1598 0.133948
399 1 7.84499 5.28655 2.43092
400 1 8.36569 4.5895 0.900165
401 1 4.56194 5.70911 1.58061
402 1 4.97667 6.61226 0.0725971
403 1 4.53733 6.39868 2.30351
404 1 5.01806 6.00543 0.793687
405 1 5.68808 5.95236 1.58856
406 1 6.23431 6.56048 0.0424896
407 1 6.20376 6.51744 3.30975
408 1 6.19012 5.86662 0.641738
409 1 6.73731 5.8731 1.55087
410 1 7.29517 5.83037 0.852862
411 1 6.76418 6.3341 2.45161
412 1 7.29263 5.31663 0.124445
413 1 7.94171 5.68807 1.63064
414 1 8.28572 6.33831 0.00171586
415 1 7.89757 6.34703 2.33806
416 1 8.47185 5.81309 0.890387
417 1 4.44056 6.9307 1.56666
418 1 5.10453 7.64111 12.8439
419 1 4.7198 7.54412 2.45084
420 1 4.90295 7.30391 0.729603
421 1 5.59352 6.52928 2.45826
422 1 6.11357 7.6293 0.0541737
423 1 5.5387 6.92534 1.47199
424 1 6.12106 7.14371 0.890852
425 1 6.72562 6.96064 1.6361
426 1 7.20958 7.64973 0.0196785
427 1 6.75972 7.4685 2.48099
428 1 7.26853 6.96127 0.903059
429 1 7.92268 6.86265 1.57744
430 1 8.46564 6.77212 0.909598
431 1 7.83726 7.46518 2.38152
432 1 9.10998 6.88063 1.61225
433 1 4.55924 7.99795 1.73673
434 1 4.933 8.67332 12.8908
435 1 4.49014 8.70441 2.3154
436 1 4.88737 8.29313 0.852356
437 1 5.7403 7.53958 2.37242
438 1 6.19204 8.67491 12.9073
439 1 5.62276 8.16547 1.55223
440 1 6.09521 8.24995 0.812567
441 1 6.79489 8.12873 1.58065
442 1 7.33399 8.85946 12.936
443 1 6.76927 8.6636 2.29061
444 1 7.29366 8.07582 0.837638
445 1 7.91707 8.01423 1.61252
446 1 8.38896 7.85324 0.814154
447 1 7.9525 9.14329 1.5385
448 1 8.26297 7.30289 12.8685
449 1 5.07852 5.33322 3.16628
450 1 4.84648 4.24517 3.2355
451 1 6.24316 5.91507 3.9939
452 1 6.06369 4.18621 3.18858
453 1 7.3494 5.40839 3.31359
454 1 7.33587 4.80829 4.02697
455 1 8.46606 5.72499 4.11378
456 1 8.24607 3.55672 4.14161
457 1 4.99233 5.96452 4.02
458 1 4.45328 5.44434 5.53422
459 1 6.15869 7.08636 4.10598
460 1 6.15538 7.6207 3.33642
461 1 7.37117 6.45769 3.28555
462 1 8.43895 6.3371 6.53358
463 1 8.43763 6.34413 3.34308
464 1 7.81392 6.38581 5.69984
465 1 5.07576 8.25194 3.95088
466 1 5.0993 6.57629 3.22185
467 1 6.26644 8.71039 3.23137
468 1 5.00026 7.11268 4.07447
469 1 6.2289 8.22715 4.12204
470 1 7.25049 7.61706 3.21307
471 1 8.36975 7.31978 3.08044
472 1 8.46831 6.85693 4.09367
473 1 5.05579 8.81437 3.18096
474 1 4.4628 8.05675 4.90456
475 1 5.47992 8.2661 4.79828
476 1 6.77982 8.26862 4.83155
477 1 7.17611 8.61277 3.10537
478 1 6.6489 9.4271 4.73595
479 1 7.86307 8.62729 2.42495
480 1 8.44353 7.90718 3.96445
481 1 8.96829 3.80281 2.41888
482 1 9.51903 4.89065 0.0020423
483 1 9.47174 4.477 0.886555
484 1 9.50885 5.12424 3.05374
485 1 11.1582 3.13229 1.64813
486 1 10.0378 4.93318 12.0629
487 1 10.0336 6.65573 1.54776
488 1 10.4844 5.01985 0.129243
489 1 10.7087 4.27197 0.839053
490 1 12.282 4.63829 12.1475
491 1 11.2329 4.82624 2.37068
492 1 11.7373 4.61498 12.8783
493 1 12.2498 4.1022 1.64545
494 1 12.8728 4.61937 0.0812678
495 1 12.4089 4.67707 2.57747
496 1 12.734 4.06151 0.795499
497 1 9.04664 5.64145 1.70039
498 1 9.27331 6.00639 12.8919
499 1 9.42795 6.1999 3.32161
500 1 9.01854 4.48249 1.68498
501 1 9.60177 5.4522 0.857373
502 1 10.675 5.99845 12.9178
503 1 10.6596 5.99222 3.1761
504 1 10.2119 5.525 1.61132
505 1 10.9083 5.40814 1.06323
506 1 11.2141 5.87341 12.0156
507 1 11.1668 5.83093 2.43976
508 1 11.7778 5.18299 0.836663
509 1 12.1076 5.19288 1.6379
510 1 12.8988 5.72736 12.926
511 1 12.3369 5.70851 2.4248
512 1 12.8028 5.23956 0.800831
513 1 8.94911 6.23691 2.38068
514 1 9.43183 7.26677 0.179524
515 1 9.0445 7.35915 2.39914
516 1 9.54562 6.45418 0.637687
517 1 9.97143 6.15867 2.47339
518 1 10.5564 7.29475 12.8622
519 1 10.218 7.12729 2.57593
520 1 10.5348 6.47639 0.680576
521 1 11.1785 6.19775 1.61483
522 1 11.6853 6.83337 12.9088
523 1 11.2653 6.89967 2.33847
524 1 12.8021 6.25072 0.869127
525 1 12.2815 6.2912 1.63159
526 1 12.2858 6.9175 12.1854
527 1 12.3222 6.8538 2.40853
528 1 12.8913 6.76456 0.0134779
529 1 8.98595 7.94885 1.62917
530 1 10.1252 8.26882 12.2107
531 1 8.26662 8.5324 3.30957
532 1 9.53115 7.91729 0.719302
533 1 10.1146 7.55642 1.44397
534 1 10.7685 8.32413 12.9301
535 1 10.1583 8.09307 2.27458
536 1 10.7508 7.64916 0.773935
537 1 11.2175 7.43681 1.57116
538 1 11.8858 7.39832 0.794333
539 1 11.2685 8.07443 2.30537
540 1 11.6864 6.36096 0.764326
541 1 12.3963 7.45124 1.70096
542 1 12.8842 7.91517 12.8433
543 1 12.8679 8.05571 3.20995
544 1 12.8853 7.37641 0.83332
545 1 8.89579 4.98776 2.45666
546 1 9.50418 3.33711 4.16193
547 1 10.1047 4.99175 2.3641
548 1 10.6358 4.17861 4.10213
549 1 11.7178 4.71416 3.24779
550 1 11.8373 4.18819 3.9823
551 1 13.0202 4.69639 3.31246
552 1 12.9468 4.06963 3.93712
553 1 9.60851 6.59066 4.12605
554 1 9.63736 5.43317 4.05847
555 1 10.7093 4.83653 3.22532
556 1 10.6674 5.37284 4.00124
557 1 11.7936 5.83988 3.23909
558 1 11.8102 5.43371 4.08143
559 1 12.903 5.95831 3.32488
560 1 12.9479 5.282 4.05464
561 1 9.63608 8.55492 3.15533
562 1 9.53598 7.28718 3.24274
563 1 10.8936 7.1014 3.28963
564 1 10.6066 6.47369 4.06543
565 1 11.8367 7.00763 3.22908
566 1 11.7727 6.457 4.07754
567 1 13.0125 6.99586 3.22987
568 1 12.9232 6.35379 4.12864
569 1 8.97036 8.49766 2.48092
570 1 8.99021 7.9898 4.96853
571 1 10.5848 8.17189 3.13648
572 1 10.5634 7.60077 4.05308
573 1 12.2706 8.02999 2.48475
574 1 11.7818 8.68523 4.00658
575 1 12.8854 7.43318 3.99675
576 1 12.3071 7.51745 4.87632
577 1 0.0549705 8.7603 1.63089
578 1 13.3948 9.22108 12.0624
579 1 0.569536 9.31994 3.25815
580 1 0.605967 8.78999 0.830206
581 1 1.0867 8.79139 1.67372
582 1 1.61431 9.48571 12.9191
583 1 1.08159 9.38158 2.3985
584 1 1.68627 8.89044 0.776281
585 1 2.18109 9.0286 1.74223
586 1 2.872 9.54084 0.146311
587 1 2.27086 9.60392 2.50633
588 1 2.75595 8.892 0.868344
589 1 3.25388 9.12588 1.63103
590 1 4.01052 9.6314 12.9491
591 1 3.44997 8.50989 2.40609
592 1 3.84493 9.24504 0.824058
593 1 0.00185777 9.29233 2.55574
594 1 0.618476 9.78736 0.756792
595 1 0.0314658 10.501 2.36516
596 1 0.518561 9.26415 12.7935
597 1 1.10847 10.0178 1.61237
598 1 1.56786 10.5256 12.8687
599 1 1.1849 10.4748 2.48005
600 1 1.71362 9.95416 0.777862
601 1 2.3079 10.0075 1.60026
602 1 2.92021 10.7053 0.036857
603 1 2.26709 10.6318 2.39495
604 1 2.82568 10.1616 0.869024
605 1 3.39519 10.1746 1.70833
606 1 4.05068 10.8424 0.03196
607 1 3.54102 10.8973 2.5326
608 1 3.89096 10.3153 0.92011
609 1 0.063249 10.8588 1.48852
610 1 0.5697 12.0959 0.795511
611 1 0.0866201 11.4728 2.35325
612 1 0.606647 10.4549 12.9063
613 1 0.729539 10.9501 0.829131
614 1 2.85 11.7643 12.8522
615 1 1.13487 11.5116 2.50889
616 1 1.30454 11.0882 1.5907
617 1 2.32704 11.141 1.66372
618 1 2.85536 12.3947 0.819724
619 1 2.2727 11.8236 2.38121
620 1 1.90529 11.0837 0.56277
621 1 3.42159 11.3718 1.73987
622 1 3.86773 12.0027 0.090799
623 1 3.32574 12.0072 2.48116
624 1 3.95537 11.4264 0.897887
625 1 0.0118953 12.0148 1.61848
626 1 0.084721 12.5417 12.2547
627 1 13.3908 12.6344 2.49392
628 1 0.621874 12.7034 12.9202
629 1 1.15367 12.1193 1.64936
630 1 1.8029 0.450289 12.9116
631 1 1.11192 12.6655 2.38067
632 1 1.68114 12.1418 0.843417
633 1 2.2502 12.3745 1.59617
634 1 1.7212 12.6768 0.0466009
635 1 2.29203 12.9243 2.34938
636 1 2.81282 12.7335 12.9249
637 1 3.50994 12.4316 1.58154
638 1 3.92362 0.320249 0.808909
639 1 3.92053 13.2592 3.26107
640 1 4.01253 12.6433 0.849189
641 1 0.478531 9.8183 4.12801
642 1 0.569823 8.60297 3.91983
643 1 1.66219 9.22608 3.2047
644 1 1.77277 8.84303 4.12776
645 1 2.77355 8.4833 3.18425
646 1 2.7445 8.92555 4.12807
647 1 3.37803 9.66909 2.52656
648 1 3.91825 9.77883 3.3135
649 1 0.581721 10.429 3.22396
650 1 0.0971275 9.69458 4.98322
651 1 1.74911 10.4831 3.34077
652 1 1.63479 10.0225 3.98805
653 1 2.94077 10.6081 3.12624
654 1 2.78967 10.2192 4.07921
655 1 4.039 10.7815 3.38757
656 1 4.39649 10.3735 4.76099
657 1 0.501176 11.5872 3.26653
658 1 0.654473 11.0172 4.04235
659 1 1.67712 11.6296 3.22225
660 1 1.69509 11.1737 4.07454
661 1 2.6603 11.9611 3.30965
662 1 2.78285 11.278 3.90536
663 1 3.97538 12.0985 3.26938
664 1 3.89847 11.5372 3.93379
665 1 0.597038 13.2487 4.07129
666 1 0.55442 12.702 3.21194
667 1 1.62903 12.7434 3.19145
668 1 1.66223 12.2364 3.99884
669 1 2.74101 13.0483 3.21544
670 1 2.91809 12.4693 4.08053
671 1 3.95472 0.300453 4.2553
672 1 3.96842 12.7499 3.98931
673 1 4.46443 9.22812 1.53875
674 1 4.99548 9.85002 12.8658
675 1 4.3683 9.75627 2.33164
676 1 5.10019 9.33578 0.669732
677 1 5.51626 9.27874 1.60133
678 1 6.18262 10.9819 12.8093
679 1 5.57421 9.78059 2.39411
680 1 6.21964 9.24715 0.70634
681 1 6.58798 9.3201 1.58969
682 1 7.18604 9.84825 0.048182
683 1 6.70291 9.91192 2.42214
684 1 7.2722 9.19837 0.939643
685 1 8.4045 9.06857 0.614319
686 1 8.51802 9.73454 12.8742
687 1 7.73716 10.1404 1.66436
688 1 8.3839 8.42467 0.00698145
689 1 4.49858 10.4218 1.71694
690 1 5.0986 10.8846 0.0165788
691 1 4.51297 11.0758 2.50551
692 1 5.01575 10.3228 0.866137
693 1 5.58637 10.4948 1.56923
694 1 5.59232 11.0628 12.0154
695 1 5.54415 11.0327 2.33491
696 1 6.17847 9.93808 0.0744864
697 1 6.18599 10.4218 0.847575
698 1 7.21438 11.0591 0.047101
699 1 6.7229 10.9684 2.46106
700 1 6.68383 10.3928 1.61532
701 1 7.35249 10.379 0.71053
702 1 8.44869 10.8474 12.9189
703 1 7.90634 10.895 2.38542
704 1 8.36002 10.1487 0.791405
705 1 4.60573 11.4773 1.57649
706 1 5.19572 11.9824 12.9428
707 1 4.48157 12.0582 2.39564
708 1 4.97314 11.5128 0.741163
709 1 5.69968 11.6345 1.599
710 1 6.31784 12.0755 12.8874
711 1 5.69293 12.6826 1.62545
712 1 6.22408 11.4684 0.751062
713 1 6.76093 11.4503 1.7125
714 1 7.35831 12.1412 12.9068
715 1 6.69323 12.1698 2.38806
716 1 7.25754 11.5772 0.879873
717 1 7.87452 11.2106 1.54414
718 1 8.4572 11.9709 0.118021
719 1 7.77292 11.9868 2.42454
720 1 8.36659 11.2582 0.770877
721 1 4.70057 12.5026 1.58341
722 1 5.56269 13.3233 12.1818
723 1 4.4967 0.892836 2.21186
724 1 5.01438 13.2793 0.0515464
725 1 5.10476 12.6662 0.5904
726 1 6.12206 0.410973 0.706113
727 1 5.69548 13.2577 2.5124
728 1 6.14037 12.5377 0.865346
729 1 6.74189 12.6973 1.59921
730 1 7.28979 13.3225 0.0439338
731 1 6.74403 13.2602 2.52187
732 1 7.35699 12.6276 0.854004
733 1 7.96618 12.3843 1.63221
734 1 8.51029 12.9948 0.106495
735 1 7.71197 13.1224 2.43382
736 1 8.42672 12.538 0.933434
737 1 4.9754 9.94559 3.06297
738 1 4.93734 9.35914 3.96854
739 1 6.1183 9.91102 3.29697
740 1 5.96761 9.23508 4.04798
741 1 7.72379 9.67524 2.47515
742 1 7.27186 9.18714 4.16745
743 1 8.37197 9.61639 3.12982
744 1 8.86233 8.91093 4.86021
745 1 5.05628 10.9359 3.32747
746 1 5.11648 10.3522 4.11665
747 1 6.00095 11.0509 3.13688
748 1 6.25024 10.4505 3.95952
749 1 7.21252 10.8722 3.13571
750 1 7.33481 10.3357 3.91211
751 1 8.4079 10.6477 3.21869
752 1 8.26346 10.1194 4.09794
753 1 5.6353 12.1478 2.49362
754 1 5.08999 12.1785 3.25432
755 1 6.30239 12.0306 3.32497
756 1 6.18093 11.4782 4.07619
757 1 7.32285 11.998 3.25874
758 1 7.41879 11.3134 4.09284
759 1 8.32762 11.8562 3.34454
760 1 8.35548 11.3519 4.13041
761 1 5.08308 0.383285 4.06089
762 1 5.11537 12.7552 3.94241
763 1 6.26565 13.1621 3.30157
764 1 6.10286 12.5078 4.21051
765 1 7.32864 12.9585 3.41486
766 1 7.3493 12.5141 4.23152
767 1 8.36132 12.9971 3.16724
768 1 8.57459 12.509 3.96928
769 1 8.9479 9.00056 1.58284
770 1 9.53518 8.98001 0.800611
771 1 9.0115 9.60557 2.38199
772 1 9.59342 9.54897 0.0130889
773 1 10.0878 8.83075 1.63308
774 1 10.1621 9.46813 12.034
775 1 10.1196 9.44585 2.33653
776 1 10.59 8.6752 0.878323
777 1 11.262 8.63894 1.46459
778 1 11.7757 9.24253 12.9341
779 1 11.1282 9.20126 2.37752
780 1 11.8717 8.59652 0.688553
781 1 12.453 8.61888 1.54713
782 1 12.8242 8.96241 0.0863477
783 1 12.2625 9.13514 2.38001
784 1 12.9059 8.39767 0.793271
785 1 8.82996 10.0945 1.58965
786 1 9.57219 10.6379 0.0648687
787 1 8.93969 10.737 2.3079
788 1 9.47635 10.0216 0.826967
789 1 10.0716 9.95981 1.51597
790 1 11.2752 9.86061 1.79418
791 1 10.1298 10.538 2.45737
792 1 10.6258 9.28863 0.0132788
793 1 11.7531 9.71719 0.81842
794 1 11.7787 10.3321 0.0266635
795 1 11.8087 10.3676 3.19588
796 1 12.9173 9.66221 0.768337
797 1 12.464 9.77773 1.54455
798 1 13.0193 10.281 0.0992114
799 1 12.3981 10.2462 2.55062
800 1 0.0291574 9.78917 1.62783
801 1 9.06162 11.3145 1.54774
802 1 9.53321 11.7641 12.8599
803 1 8.88079 11.8351 2.44433
804 1 9.69673 11.1538 0.889945
805 1 10.0979 11.0592 1.7101
806 1 10.7485 11.5958 12.8141
807 1 10.0295 11.6566 2.466
808 1 10.7428 9.83406 0.907479
809 1 10.7532 11.0233 0.748598
810 1 11.8384 10.7541 0.919336
811 1 11.2552 11.5601 2.4997
812 1 11.1869 11.0337 1.65606
813 1 12.3109 10.891 1.78161
814 1 12.9695 11.2602 12.916
815 1 12.4294 11.5491 2.41888
816 1 12.8093 10.9248 0.919122
817 1 9.05376 12.309 1.63953
818 1 9.53349 12.8514 0.00202896
819 1 9.00597 12.9491 2.37248
820 1 9.64376 12.2208 0.876275
821 1 10.1115 12.2854 1.82242
822 1 10.7026 12.7089 12.9118
823 1 10.1737 12.8271 2.51942
824 1 10.6045 12.0077 0.756819
825 1 11.129 12.1448 1.54438
826 1 13.4261 11.9095 11.3241
827 1 11.4002 12.5616 2.42451
828 1 11.8742 11.8781 0.803625
829 1 12.2278 12.0047 1.61616
830 1 11.7393 12.5786 0.0212971
831 1 12.3988 12.6053 2.48299
832 1 12.944 11.9705 0.74305
833 1 9.50113 9.54448 3.31044
834 1 10.1345 8.88037 4.78439
835 1 10.6461 9.23906 3.13647
836 1 10.5514 8.73781 4.00206
837 1 11.3165 10.4434 2.49955
838 1 11.6006 8.08575 3.20993
839 1 12.7661 9.21759 3.3015
840 1 12.9325 8.72575 3.98283
841 1 9.43647 10.6544 3.27499
842 1 9.49709 10.0791 4.0592
843 1 10.602 10.3791 3.25564
844 1 10.6807 9.84939 3.9939
845 1 11.8298 9.85126 4.09299
846 1 11.7218 9.28139 3.19861
847 1 13.0611 10.289 3.25717
848 1 12.9102 9.83864 4.11036
849 1 9.45929 11.7718 3.17604
850 1 9.61934 11.1627 3.97659
851 1 10.6551 11.6261 3.26481
852 1 10.6573 10.9598 4.07838
853 1 11.7819 11.4372 3.20693
854 1 11.7665 10.9897 4.01749
855 1 12.9326 11.4094 3.22456
856 1 12.839 10.8251 4.09308
857 1 9.56219 12.8142 3.27377
858 1 9.57657 12.3258 4.10483
859 1 10.7637 12.6792 3.22402
860 1 10.5872 12.1083 4.00805
861 1 11.7788 12.5779 3.33006
862 1 11.6732 12.0104 4.1363
863 1 12.8022 12.543 3.33737
864 1 12.9133 11.893 4.02454
865 1 0.0863953 13.177 4.83853
866 1 0.0151285 0.134351 5.60576
867 1 1.17905 13.2811 5.01575
868 1 1.09309 0.343096 5.78094
869 1 2.28841 12.8903 5.6898
870 1 2.30124 0.119014 4.88911
871 1 3.33989 0.0803118 4.94393
872 1 3.41257 0.741393 5.6073
873 1 13.3827 0.80885 4.97631
874 1 0.0955891 1.40095 5.63293
875 1 1.20881 0.877919 4.72725
876 1 1.14079 1.27306 5.5982
877 1 2.19102 0.582638 5.74768
878 1 2.2401 1.68201 5.79514
879 1 2.91493 1.23512 3.91605
880 1 3.36069 1.95659 5.76242
881 1 0.0631548 2.02895 4.91158
882 1 0.130532 2.5481 5.79085
883 1 1.22099 2.00494 4.85003
884 1 1.21726 2.44013 5.66576
885 1 2.25867 2.12963 4.77819
886 1 2.34353 2.66323 5.82325
887 1 3.32773 3.0827 5.69898
888 1 3.88724 3.06238 6.41119
889 1 0.0869146 3.12505 4.85752
890 1 0.0314794 3.6272 5.70059
891 1 1.16681 3.07725 4.93507
892 1 1.21531 3.70118 5.65667
893 1 2.27363 3.1657 4.97888
894 1 2.33188 3.8534 5.63535
895 1 3.40677 3.56565 4.77599
896 1 3.36578 4.06556 5.64469
897 1 13.3943 13.0238 8.12268
898 1 0.441473 0.286881 6.54715
899 1 0.608355 13.0453 7.38513
900 1 1.24244 13.3199 7.90304
901 1 1.603 0.875949 7.16509
902 1 1.59448 0.228644 6.56361
903 1 2.18122 13.3967 8.1061
904 1 2.5821 0.0563007 7.36776
905 1 3.34227 0.156271 7.97003
906 1 3.3289 0.570966 8.97173
907 1 3.91429 0.750806 6.46912
908 1 3.94115 0.25456 7.23991
909 1 0.0738469 0.840463 8.13652
910 1 0.492393 1.39207 6.50938
911 1 0.567538 0.832927 7.33537
912 1 2.12722 1.09897 8.14296
913 1 1.59459 1.54592 6.58497
914 1 2.38314 0.434248 8.97179
915 1 2.78666 1.25814 7.39651
916 1 2.78116 1.51716 6.51988
917 1 2.84045 0.516868 6.44475
918 1 2.89235 0.687902 9.88973
919 1 3.83576 2.47493 7.42529
920 1 3.91757 1.39207 7.27465
921 1 0.397606 2.00087 7.39786
922 1 1.04636 1.92843 8.00783
923 1 1.14234 2.48781 8.83882
924 1 1.18419 0.873506 8.12974
925 1 1.70901 2.67866 6.58763
926 1 1.57955 2.052 7.34662
927 1 2.24371 2.26032 8.10936
928 1 2.84245 3.01103 6.7497
929 1 2.7389 2.27612 7.14918
930 1 3.38855 1.69446 8.98678
931 1 3.35884 2.87252 8.87406
932 1 3.24051 2.17694 8.15128
933 1 0.0118731 2.81517 8.10821
934 1 0.588755 3.54247 6.47193
935 1 0.559447 2.42349 6.48697
936 1 0.659252 3.09011 7.3046
937 1 1.64397 3.7138 6.44986
938 1 1.76625 3.25702 7.40226
939 1 2.59728 3.32344 7.80469
940 1 2.81366 3.87595 6.61909
941 1 3.40989 3.42998 7.9841
942 1 3.3823 3.98004 8.97961
943 1 4.58432 4.28057 5.60333
944 1 3.84493 1.98735 6.55086
945 1 4.62551 0.368491 4.85061
946 1 4.5067 0.814228 5.76253
947 1 5.67358 0.359054 4.8921
948 1 5.69307 0.939133 5.65964
949 1 6.71546 0.274421 4.91043
950 1 6.83421 0.849601 5.63712
951 1 7.88189 0.254839 4.81457
952 1 8.36392 0.706345 6.46421
953 1 3.38156 1.34982 5.00872
954 1 4.03001 3.50734 3.98713
955 1 5.59199 1.51869 4.95584
956 1 5.67034 2.09327 5.72035
957 1 6.71875 1.35669 4.88037
958 1 6.79815 3.08924 5.60683
959 1 7.92162 1.433 4.84418
960 1 7.88189 1.83556 5.71301
961 1 4.52117 1.92523 5.74226
962 1 5.03065 3.78951 7.36657
963 1 5.42767 2.60923 4.91815
964 1 4.98534 3.29712 6.38646
965 1 6.7451 2.55799 4.92568
966 1 6.76315 4.29542 5.69189
967 1 7.87072 2.58711 4.88846
968 1 7.91067 2.95493 5.71687
969 1 5.59723 3.71376 4.9042
970 1 3.98305 4.18418 6.37466
971 1 5.00539 4.9051 4.05697
972 1 5.63236 4.8983 4.68417
973 1 6.71203 3.72133 4.97639
974 1 6.82534 4.87969 4.90277
975 1 7.9123 4.14634 5.69761
976 1 8.47343 4.11318 6.45401
977 1 4.52431 0.282006 8.09175
978 1 5.09645 0.970683 6.52441
979 1 5.01467 0.340423 7.23286
980 1 5.69921 0.397624 8.04599
981 1 6.21517 1.00647 6.54025
982 1 6.25216 0.43102 7.29604
983 1 6.68721 13.2562 8.8917
984 1 7.84511 0.797634 5.60478
985 1 6.75374 0.501106 8.12081
986 1 7.791 0.136211 8.05949
987 1 8.43755 0.0650493 7.34139
988 1 8.29818 13.0467 6.47617
989 1 4.59659 1.31133 8.08772
990 1 5.03693 1.99708 6.50063
991 1 4.99256 1.45805 7.30148