data.lammps (converted from cfg to data.lammps)
    
2298  atoms
1  atom types
0.0   13.4375  xlo xhi
0.0   13.4375  ylo yhi
0.0   12.952  zlo zhi
0.0  0.0 0.0 xy xz yz
    
    
    
Atoms
  
1 1 0.0644004 13.0225 1.64573
2 1 0.574151 0.451554 0.0887076
3 1 0.010624 1.27048 2.44714
4 1 1.28089 13.3681 1.5987
5 1 1.78025 13.3277 0.669124
6 1 1.17505 13.2333 11.3217
7 1 1.04804 0.439166 2.53083
8 1 2.90946 1.06073 0.837514
9 1 2.34092 13.3394 1.64917
10 1 2.82529 0.100852 0.890827
11 1 2.27741 0.625741 2.4027
12 1 2.93582 0.65767 12.8438
13 1 3.38594 13.0755 2.38497
14 1 3.94819 0.753255 0.146093
15 1 3.32258 1.85837 2.57237
16 1 3.46249 0.264059 1.66058
17 1 12.9109 0.684684 0.752273
18 1 1.18672 1.97616 11.3859
19 1 0.145262 0.751893 1.52738
20 1 0.589269 1.11273 0.820513
21 1 1.70375 0.91563 0.825699
22 1 0.548575 2.65619 12.8931
23 1 1.12133 1.98953 1.73681
24 1 1.58919 1.64503 0.10432
25 1 2.28884 1.06292 1.70279
26 1 2.17247 1.63776 12.1598
27 1 2.16934 1.62166 2.45712
28 1 2.8531 2.90465 3.27129
29 1 3.41988 0.744185 2.45573
30 1 3.91674 1.37075 0.82726
31 1 4.99921 2.14923 3.31873
32 1 5.57698 0.455249 1.64801
33 1 12.9937 2.31515 0.0667099
34 1 0.513128 2.10352 0.939403
35 1 13.3915 2.41383 2.53566
36 1 12.8361 1.78454 0.820214
37 1 2.32817 2.20875 1.46409
38 1 1.69222 2.75535 12.8774
39 1 1.16333 2.64875 2.40295
40 1 2.92188 2.38358 0.614618
41 1 3.44599 1.34148 1.64793
42 1 2.79429 3.0442 12.9195
43 1 2.28838 2.57546 2.42353
44 1 3.28302 2.39275 1.59982
45 1 2.75517 1.81768 3.32189
46 1 3.81884 2.55044 0.80463
47 1 2.9815 2.41672 4.18891
48 1 3.99473 1.84039 12.9475
49 1 0.0805496 2.9323 1.62013
50 1 1.17998 3.17644 1.60053
51 1 13.4022 3.52527 2.39949
52 1 1.16022 3.80958 2.47313
53 1 0.504367 1.58683 12.93
54 1 1.65424 3.81931 12.9288
55 1 1.74067 3.77497 3.14463
56 1 1.75204 3.17194 0.86806
57 1 2.25488 3.3585 1.89617
58 1 2.88496 4.03996 12.8571
59 1 2.36411 3.9437 2.50163
60 1 2.78311 3.481 0.887156
61 1 3.43758 3.59918 1.57253
62 1 4.44826 4.24251 12.1484
63 1 2.89773 4.0259 3.30614
64 1 3.94546 3.68877 0.773242
65 1 0.00620967 0.284426 2.35426
66 1 0.429339 0.313133 3.28311
67 1 1.73494 0.344802 3.20976
68 1 1.68494 13.3144 4.09256
69 1 2.77874 0.703378 3.23294
70 1 2.71295 13.3771 4.06133
71 1 3.94342 1.8852 3.25393
72 1 3.85994 0.59643 3.43093
73 1 0.571633 1.50847 3.3518
74 1 0.653626 0.947279 4.08207
75 1 1.23229 0.891192 1.60541
76 1 1.67414 0.909033 4.03435
77 1 1.07349 1.50301 2.4307
78 1 2.35692 2.18705 4.78479
79 1 4.53763 2.47977 4.86085
80 1 4.50154 1.9734 2.48338
81 1 0.687003 2.48281 3.17972
82 1 0.56513 2.1693 4.15697
83 1 1.73197 2.74927 3.30972
84 1 1.1339 2.05356 4.75331
85 1 1.67513 1.56155 3.33215
86 1 3.9664 2.54974 4.05348
87 1 3.3113 2.94916 2.48572
88 1 4.50352 3.09879 5.6781
89 1 0.546342 3.6994 3.25488
90 1 0.417404 3.15382 3.9754
91 1 1.52407 3.22128 4.07807
92 1 1.01188 3.21922 4.91354
93 1 2.62733 4.56182 4.31274
94 1 2.56164 3.54171 4.08129
95 1 3.88359 4.20578 3.34704
96 1 3.94685 3.11722 3.28417
97 1 4.52238 0.390288 1.62365
98 1 5.1305 0.429071 0.749973
99 1 4.52693 1.47955 1.64572
100 1 5.67964 1.57232 1.5255
101 1 5.54912 1.04828 2.33837
102 1 6.23423 0.865853 12.8124
103 1 5.0486 13.2674 3.17606
104 1 6.8676 0.332636 1.5875
105 1 6.62254 1.50027 1.68253
106 1 7.33614 0.809819 12.941
107 1 6.63001 0.802525 2.39697
108 1 7.97528 0.706722 2.44052
109 1 7.49125 0.201076 0.7248
110 1 7.72319 1.34659 11.4075
111 1 7.31528 0.706435 3.08646
112 1 7.8817 0.266795 1.67763
113 1 4.97369 0.968707 0.0737234
114 1 4.47154 1.90593 12.0301
115 1 3.87001 1.43959 4.06541
116 1 5.04678 1.55896 0.858179
117 1 6.21068 2.0395 0.0174506
118 1 6.06652 2.70322 0.814698
119 1 5.61584 2.14007 2.45863
120 1 5.07024 2.13855 0.0516122
121 1 6.19363 1.45227 0.676921
122 1 6.74052 2.02521 12.175
123 1 6.80443 1.98574 2.45742
124 1 7.16934 1.18513 0.85815
125 1 7.72697 1.37459 1.59965
126 1 8.4448 1.74464 0.0376924
127 1 7.93271 1.82751 2.48436
128 1 7.85546 1.86332 12.1369
129 1 4.47213 2.56629 1.63288
130 1 5.13511 3.21401 12.8326
131 1 4.47179 3.04432 2.35479
132 1 5.03599 2.67647 0.820518
133 1 5.56811 2.71294 1.70351
134 1 6.22883 3.08579 0.0784974
135 1 4.92948 3.29883 3.10226
136 1 6.61208 2.54654 1.61293
137 1 7.88257 2.93044 2.49728
138 1 7.85472 2.94586 12.1998
139 1 6.6466 3.02212 2.58711
140 1 7.276 1.96949 0.13709
141 1 7.25238 2.47 0.869748
142 1 8.53829 2.88999 0.0124163
143 1 7.68986 3.48453 1.68126
144 1 7.85533 2.38286 1.66585
145 1 4.55823 3.61318 1.51023
146 1 4.9797 4.38968 12.8783
147 1 4.6483 4.63525 1.63097
148 1 5.21618 3.69651 0.678629
149 1 5.62613 3.83336 1.6225
150 1 6.15029 4.34042 0.0271036
151 1 5.63977 4.25805 2.57279
152 1 6.24592 3.82466 0.807403
153 1 7.20399 4.20111 12.7363
154 1 6.62494 4.3177 12.0416
155 1 6.67239 3.64355 1.73118
156 1 7.28335 3.56082 0.773914
157 1 7.90134 3.95558 2.4972
158 1 8.44484 3.96817 0.100152
159 1 8.45721 4.01809 3.36093
160 1 8.34394 3.37397 0.866206
161 1 5.06252 0.906057 3.28073
162 1 4.51664 13.2637 2.40067
163 1 6.08742 0.945008 3.22006
164 1 6.22835 0.310338 4.00608
165 1 7.15906 1.20609 4.03505
166 1 7.35811 0.255964 4.24997
167 1 8.52286 0.555184 3.25624
168 1 8.34308 13.2964 4.0234
169 1 5.04774 1.56998 3.95145
170 1 4.45811 1.50071 4.87983
171 1 6.05517 2.0343 3.14508
172 1 6.07821 2.47461 4.1234
173 1 7.369 1.80622 3.27911
174 1 6.74647 1.56211 4.94924
175 1 8.48647 1.72787 3.25708
176 1 8.38243 1.09888 4.06552
177 1 4.9849 3.75964 4.15081
178 1 4.96141 2.75778 4.08585
179 1 5.64112 3.24235 2.43788
180 1 6.01695 3.15971 3.42145
181 1 7.23619 3.00608 3.31948
182 1 7.20273 2.37576 3.99949
183 1 8.38629 2.74947 3.36275
184 1 8.48131 2.15508 4.12662
185 1 5.03828 4.36648 3.23787
186 1 4.44026 3.6826 4.94746
187 1 6.72009 4.21714 2.51054
188 1 6.07724 3.78989 4.09875
189 1 7.33901 4.12226 3.30957
190 1 7.24662 3.59706 4.05228
191 1 8.45231 5.16675 3.20416
192 1 7.81821 3.69007 4.82731
193 1 8.4644 0.121014 0.889982
194 1 8.91901 0.573408 12.0593
195 1 9.1076 0.763786 2.41029
196 1 9.68134 0.0407879 0.820777
197 1 10.1797 13.2939 1.6498
198 1 10.5885 0.293799 0.101909
199 1 10.1521 0.256761 2.47328
200 1 10.8089 13.1461 0.795131
201 1 11.2881 13.1837 1.65839
202 1 11.1563 0.232404 12.2906
203 1 11.3462 0.230726 2.48194
204 1 11.8119 13.0176 0.860941
205 1 12.3662 13.0273 1.60846
206 1 11.9125 0.0609729 12.9449
207 1 12.3424 0.25374 2.37018
208 1 13.0014 13.0929 0.822715
209 1 8.45708 1.30925 0.877727
210 1 10.1328 2.10398 1.56735
211 1 8.884 1.10536 1.62502
212 1 9.56156 0.618652 12.8787
213 1 9.62743 1.13905 0.889236
214 1 10.0684 2.69595 12.0922
215 1 10.1436 1.44378 2.26933
216 1 10.6841 1.04931 0.687785
217 1 11.2485 0.840125 1.48997
218 1 11.7963 1.91783 0.691608
219 1 11.2817 1.33285 2.36396
220 1 11.7616 0.676246 0.764215
221 1 12.4456 0.75336 1.59851
222 1 12.2992 0.168126 12.0329
223 1 12.3824 1.3295 2.54239
224 1 0.678414 13.2834 0.868428
225 1 8.99505 2.38107 1.69687
226 1 9.06453 2.91371 12.1602
227 1 9.68281 2.64908 3.30099
228 1 10.137 2.65204 2.40533
229 1 10.214 0.826932 1.59573
230 1 10.2696 2.12607 11.4085
231 1 10.1379 3.25007 1.51139
232 1 10.7223 2.07234 0.874472
233 1 11.3279 1.91683 1.49734
234 1 12.3303 2.38787 12.2231
235 1 11.1712 2.29797 2.46106
236 1 11.7621 2.40999 0.0119527
237 1 12.3131 1.81819 1.65246
238 1 11.6997 3.69893 0.0914074
239 1 12.2861 2.46566 2.43612
240 1 12.9356 1.23547 12.8143
241 1 8.96868 2.84935 2.51104
242 1 9.51022 3.8093 0.00241497
243 1 8.95251 3.45492 1.52858
244 1 9.62395 2.67666 0.0552541
245 1 10.7544 3.17753 0.853547
246 1 10.6641 3.70837 0.000710749
247 1 10.0753 4.32069 1.70913
248 1 10.2181 3.37143 11.3152
249 1 11.1862 3.56572 2.50209
250 1 12.2279 3.53045 12.1928
251 1 11.3085 4.09555 1.57128
252 1 11.8398 4.21014 0.924121
253 1 12.3254 2.94244 1.63283
254 1 13.4173 1.94621 1.72699
255 1 12.4345 3.55888 2.42816
256 1 12.8978 2.88651 0.844815
257 1 9.52967 0.576029 3.2813
258 1 9.50992 13.3642 4.12063
259 1 10.6742 0.302918 3.20751
260 1 10.4547 13.2437 4.11359
261 1 11.7945 0.172865 3.41912
262 1 11.6786 12.9793 4.11722
263 1 12.865 0.267051 3.18472
264 1 12.8679 13.0425 4.17166
265 1 9.05104 1.79714 2.40311
266 1 9.52682 1.16822 4.13474
267 1 10.5855 1.29003 3.23217
268 1 10.6249 0.759367 4.09975
269 1 11.704 1.39089 3.29536
270 1 11.7638 0.718062 4.09497
271 1 13.0252 1.35294 3.33598
272 1 12.8958 0.696404 4.09366
273 1 9.51046 2.09793 4.0358
274 1 9.56182 1.64361 3.14041
275 1 10.6453 2.53003 3.2261
276 1 10.7089 1.97813 3.98312
277 1 11.7015 2.5889 3.18391
278 1 11.7886 1.82685 3.97347
279 1 12.7808 2.4833 3.18443
280 1 12.8964 1.89652 4.08601
281 1 10.021 3.76036 2.3763
282 1 9.50441 3.87183 3.1835
283 1 12.958 3.75886 3.29209
284 1 10.7325 3.17847 4.07298
285 1 10.5808 3.69695 3.21954
286 1 11.7804 3.03479 4.10393
287 1 11.8289 3.55904 3.24397
288 1 12.8839 2.95456 3.9804
289 1 0.142658 4.06982 1.58196
290 1 0.594659 4.12373 0.797725
291 1 0.112131 4.76861 2.26967
292 1 0.474142 3.74522 12.8245
293 1 1.18179 4.35786 1.58801
294 1 1.86334 4.91849 0.0461208
295 1 1.11606 4.9199 2.44174
296 1 1.65804 4.23903 0.823737
297 1 2.15978 4.45331 1.63358
298 1 3.029 5.10145 0.0203261
299 1 2.26524 5.02446 2.43868
300 1 2.72655 4.52489 0.778528
301 1 3.20222 4.62431 1.5888
302 1 4.10702 5.26395 0.0749451
303 1 3.35923 5.11281 2.45417
304 1 3.95906 4.26893 0.122846
305 1 0.565095 5.15183 0.81616
306 1 0.552825 5.84582 0.056093
307 1 0.109348 5.84343 2.35333
308 1 0.617372 4.74072 12.9392
309 1 1.20607 5.42089 1.63638
310 1 1.70512 5.96898 0.0935344
311 1 1.18845 5.98674 2.32639
312 1 1.74483 5.4322 0.771692
313 1 2.29401 5.52258 1.53122
314 1 2.79192 6.22511 0.0594049
315 1 2.24297 6.13493 2.35036
316 1 2.92561 5.70509 0.79957
317 1 3.40733 5.64818 1.74794
318 1 3.93748 6.38733 12.9164
319 1 3.36022 6.3267 2.40745
320 1 3.90333 5.7763 0.866045
321 1 0.00968136 6.39683 1.47834
322 1 0.609931 7.09001 12.9175
323 1 0.0478558 7.63515 1.58362
324 1 0.502357 6.45113 0.751028
325 1 1.13254 6.46743 1.53283
326 1 1.8048 7.14523 0.0699241
327 1 1.03903 7.0679 2.47265
328 1 1.69826 6.64224 0.815922
329 1 2.26898 6.67981 1.62944
330 1 2.91179 7.43242 0.0798127
331 1 2.2394 7.26681 2.43073
332 1 2.89066 6.82761 0.959378
333 1 3.49806 6.80535 1.63129
334 1 3.92641 7.48548 0.0545709
335 1 3.33986 7.51137 2.38644
336 1 4.05493 6.87878 0.740325
337 1 0.00278862 8.65609 1.46918
338 1 0.584651 8.1189 0.0195981
339 1 0.557848 8.15921 3.19148
340 1 0.590858 7.56761 0.798126
341 1 1.14743 7.61335 1.65242
342 1 1.67196 8.33495 12.867
343 1 1.16787 8.18967 2.42943
344 1 1.67889 7.74159 0.818002
345 1 2.27514 7.81881 1.59285
346 1 2.79243 8.44422 0.0660259
347 1 2.20167 8.4016 2.32233
348 1 2.78764 7.87357 0.83912
349 1 3.41826 8.06435 1.58359
350 1 3.89405 8.61901 0.0693134
351 1 2.7441 9.58663 3.34996
352 1 3.98438 8.02986 0.913718
353 1 0.659916 4.87535 3.37981
354 1 0.669022 4.21411 4.04181
355 1 1.77775 4.9396 3.23047
356 1 1.63188 4.32153 3.93541
357 1 2.82949 5.08717 3.37279
358 1 3.39789 4.54286 4.81979
359 1 3.47186 4.06023 2.45061
360 1 3.82677 5.36776 3.30785
361 1 0.725949 5.82014 3.18698
362 1 0.44824 5.44928 4.12213
363 1 1.74272 6.07587 3.21975
364 1 1.68341 5.4886 4.12213
365 1 2.81526 6.20647 3.18035
366 1 2.83262 5.63601 4.09137
367 1 3.95865 6.3232 3.1953
368 1 3.78944 5.7797 4.2052
369 1 0.676145 6.42415 3.97832
370 1 1.11886 6.57414 4.86393
371 1 1.67 7.24506 3.10298
372 1 1.67296 6.67376 3.87683
373 1 2.76186 7.31034 3.30934
374 1 2.7595 6.72297 4.10659
375 1 5.06931 7.74022 3.16126
376 1 3.32151 6.96624 4.92682
377 1 0.530553 8.66962 3.96779
378 1 0.39865 6.83762 3.13946
379 1 1.76747 8.36087 3.23444
380 1 1.57664 7.73711 3.98226
381 1 3.98767 8.68192 3.24771
382 1 2.67796 7.85148 4.03487
383 1 3.85596 7.44064 3.22979
384 1 3.96764 8.08321 3.98262
385 1 3.95667 4.77879 1.05389
386 1 5.13991 5.59571 0.0634288
387 1 4.5026 5.17024 2.48766
388 1 5.06129 4.84212 0.711249
389 1 5.59103 5.46616 2.46947
390 1 6.239 5.0075 0.876094
391 1 6.08562 5.46162 3.37542
392 1 5.68959 4.83524 1.61979
393 1 6.7263 4.8027 1.71455
394 1 6.76776 5.36109 12.1859
395 1 6.62236 5.30867 2.51558
396 1 7.20163 4.56027 0.802692
397 1 7.76743 4.51759 1.60145
398 1 8.45203 5.1847 0.0978745
399 1 7.79348 5.03201 2.50361
400 1 8.27268 4.61933 0.850928
401 1 4.53573 5.76989 1.81937
402 1 5.13098 6.6274 12.9378
403 1 4.5058 6.50087 2.53723
404 1 5.04277 6.02103 0.902795
405 1 5.53379 6.02206 1.61505
406 1 6.17519 6.512 0.058209
407 1 6.25141 6.53588 3.24924
408 1 6.21904 6.02591 0.887136
409 1 6.83915 5.95645 1.70043
410 1 7.23777 5.78603 0.830033
411 1 6.71002 6.46188 2.33828
412 1 7.39898 5.23959 0.0601835
413 1 7.88359 5.58429 1.68375
414 1 8.36459 6.26114 0.0143924
415 1 7.87166 6.27533 2.35789
416 1 8.32798 5.80712 0.86513
417 1 4.56446 6.89063 1.60692
418 1 4.95863 7.7199 0.0321443
419 1 4.43064 7.57207 2.43753
420 1 5.17107 7.24326 0.860807
421 1 5.58282 6.52272 2.50894
422 1 6.13978 7.60643 0.0106898
423 1 5.5787 7.11121 1.70387
424 1 6.18477 7.0366 0.902078
425 1 6.81314 7.20204 1.59008
426 1 7.28701 7.49237 0.0795702
427 1 6.76006 7.66146 2.39993
428 1 7.36388 6.93018 0.882641
429 1 7.85364 6.84997 1.78701
430 1 8.34547 6.82839 0.842129
431 1 7.8874 7.53168 2.49624
432 1 9.02864 6.70131 1.6119
433 1 4.53583 8.08905 1.57252
434 1 5.04523 8.74171 12.8007
435 1 4.39495 8.7706 2.30797
436 1 5.09932 8.41916 0.726265
437 1 5.66806 7.7052 2.43513
438 1 6.12355 8.78819 0.113254
439 1 5.59942 8.17568 1.64124
440 1 6.21335 8.12199 0.733438
441 1 6.63971 8.27219 1.59569
442 1 7.32278 8.66314 0.0532716
443 1 6.72791 8.71756 2.48154
444 1 7.37826 8.18639 0.855517
445 1 7.87556 7.97252 1.59743
446 1 8.52632 7.9228 0.92399
447 1 7.8247 8.99623 1.60014
448 1 8.37363 7.3206 0.0215269
449 1 4.98023 5.5184 3.34427
450 1 4.47594 4.14412 2.48756
451 1 6.25305 6.11852 4.13039
452 1 6.24111 4.26895 3.35269
453 1 7.23897 5.36331 3.2871
454 1 7.33825 4.86755 3.97654
455 1 8.43657 5.65954 4.18122
456 1 8.44145 3.30808 3.99525
457 1 5.02275 6.00603 4.07791
458 1 4.48209 5.41448 5.65166
459 1 6.13484 7.08761 4.21465
460 1 6.1923 7.5619 3.28183
461 1 7.26923 6.47235 3.12279
462 1 8.45873 6.18426 6.5724
463 1 8.39833 6.12327 3.25695
464 1 7.9117 6.34106 5.68818
465 1 4.997 8.25022 4.0676
466 1 5.10011 6.70226 3.33502
467 1 6.09031 8.79503 3.19644
468 1 4.90892 7.17341 4.09126
469 1 6.00847 8.19564 3.9471
470 1 7.2328 7.53731 3.33362
471 1 8.41885 7.38341 3.249
472 1 8.481 6.82543 3.97077
473 1 4.97279 8.91192 3.15221
474 1 4.4726 8.18282 4.92448
475 1 5.49048 8.15269 4.89137
476 1 6.51423 8.24215 4.8516
477 1 7.35468 8.55486 3.36882
478 1 6.72923 9.16397 4.91483
479 1 7.83281 8.54348 2.40567
480 1 8.26778 7.93068 4.09573
481 1 8.8868 3.93809 2.39638
482 1 9.57431 5.06037 0.0276204
483 1 9.49406 4.42741 0.771556
484 1 9.51388 4.92101 3.25198
485 1 11.2762 3.03076 1.68303
486 1 9.97953 4.83343 12.2221
487 1 10.1942 6.52537 1.71133
488 1 10.6864 4.84179 12.9212
489 1 10.5057 4.28217 0.834469
490 1 12.2028 4.63897 12.1706
491 1 11.1346 4.67656 2.31518
492 1 11.7338 4.82895 12.9299
493 1 12.475 4.08997 1.63013
494 1 12.8305 4.61617 0.00755336
495 1 12.3135 4.70923 2.41719
496 1 12.9523 3.88629 0.749673
497 1 8.93173 5.61802 1.67784
498 1 9.59424 6.20103 0.210664
499 1 9.54197 6.05617 3.28009
500 1 8.96731 4.46551 1.62242
501 1 9.40078 5.51556 0.794546
502 1 10.6112 5.91636 12.9072
503 1 10.6947 5.95451 3.28574
504 1 10.0399 5.4948 1.57037
505 1 10.5352 5.31988 0.883852
506 1 11.1916 5.8898 12.2118
507 1 11.2178 5.34451 1.70854
508 1 11.6518 5.20011 0.939029
509 1 12.3161 5.3277 1.62906
510 1 12.8774 5.80374 0.089961
511 1 12.9761 5.77348 3.11577
512 1 13.3968 5.31159 1.58508
513 1 9.06846 6.17248 2.48324
514 1 9.55148 7.18577 12.8802
515 1 9.07515 7.25007 2.45952
516 1 9.51601 6.80021 0.907556
517 1 10.1217 5.87436 2.49669
518 1 10.67 7.1299 0.0125739
519 1 10.2008 7.07683 2.34217
520 1 10.564 6.41064 0.742861
521 1 11.1981 6.6621 1.5833
522 1 11.7537 6.96565 0.00687965
523 1 11.4044 7.14941 2.36216
524 1 12.8985 5.15053 0.746818
525 1 12.5729 6.31378 1.0577
526 1 12.3526 6.91488 12.1976
527 1 12.278 5.91786 2.40818
528 1 12.9015 6.83877 0.115118
529 1 8.90582 7.84049 1.71478
530 1 10.1284 8.31375 12.2544
531 1 8.40052 8.46798 3.32436
532 1 9.46688 7.86493 0.827677
533 1 10.0832 7.68038 1.51119
534 1 10.609 8.12063 0.212028
535 1 10.0115 8.22147 2.41937
536 1 10.8815 7.49741 0.98884
537 1 11.0686 7.9604 2.33065
538 1 11.7881 7.50824 0.881503
539 1 11.762 8.04607 3.10519
540 1 11.6874 6.22777 0.845294
541 1 12.3099 7.50613 1.76892
542 1 12.8971 7.93756 12.9436
543 1 12.8103 7.9037 3.15622
544 1 12.8042 7.40574 0.819538
545 1 8.94107 4.96845 2.42992
546 1 9.59514 3.29131 4.00139
547 1 10.0352 4.94071 2.46097
548 1 10.6906 4.25701 4.00168
549 1 11.7778 4.63992 3.12762
550 1 11.7491 4.10532 4.14505
551 1 13.0427 4.77261 3.11322
552 1 12.8051 4.20015 4.07436
553 1 9.53684 6.6016 4.08742
554 1 9.51151 5.54294 4.00405
555 1 10.7021 4.73301 3.17618
556 1 10.6613 5.28615 4.07524
557 1 11.3327 6.01475 2.36272
558 1 11.7755 5.25444 3.9034
559 1 11.7337 5.719 3.23485
560 1 12.7967 5.1568 3.93004
561 1 9.47869 8.12494 3.22892
562 1 9.60179 7.14706 3.3703
563 1 10.687 7.00861 3.13616
564 1 10.5523 6.41119 4.06289
565 1 11.762 6.90077 3.26537
566 1 11.7985 6.34731 4.02156
567 1 12.4429 6.68127 1.97513
568 1 0.0770534 7.00879 2.27836
569 1 8.89632 8.47367 2.38651
570 1 8.92258 7.93746 4.82604
571 1 10.5919 8.23265 3.15333
572 1 10.6239 7.62257 3.98235
573 1 12.3477 8.11874 2.35751
574 1 12.2003 8.617 4.81927
575 1 12.7377 6.82767 2.99253
576 1 12.9854 7.35866 3.99349
577 1 0.00960396 8.13506 2.4536
578 1 13.3483 9.2665 12.0624
579 1 0.427033 9.31643 3.13366
580 1 0.627303 8.74402 0.796705
581 1 1.06428 8.75465 1.69084
582 1 1.57932 9.42653 12.8178
583 1 1.09368 9.4861 2.37665
584 1 1.6367 8.83068 0.824059
585 1 2.18096 8.99819 1.6512
586 1 2.84058 9.5911 12.8519
587 1 2.22014 9.56023 2.44811
588 1 2.65884 9.0126 0.778839
589 1 3.26805 9.0819 1.49716
590 1 3.93904 9.70846 12.8862
591 1 3.41987 8.58068 2.47926
592 1 3.90773 9.19697 0.714441
593 1 13.3747 9.19731 2.32352
594 1 0.641391 9.83311 0.811957
595 1 0.03765 10.3486 2.46641
596 1 0.418991 9.36517 0.00606246
597 1 1.15457 10.0593 1.63936
598 1 1.69459 10.4481 0.0299274
599 1 1.14809 10.6786 2.48549
600 1 1.69783 9.89504 0.777129
601 1 2.24623 10.1239 1.63655
602 1 2.68293 10.872 0.0282697
603 1 2.91387 10.7774 3.22469
604 1 2.75709 10.222 0.771338
605 1 3.32936 10.1377 1.61461
606 1 3.92284 10.8159 0.0123727
607 1 3.26486 10.7182 2.4114
608 1 3.7808 10.3048 0.795882
609 1 13.3577 10.768 1.67832
610 1 0.659854 12.1048 0.853021
611 1 0.0451333 11.5082 2.51462
612 1 0.597455 10.4997 12.9322
613 1 0.530312 11.0019 0.776755
614 1 2.83511 11.9824 0.0131157
615 1 1.10843 11.5976 2.42547
616 1 1.0571 11.1022 1.57658
617 1 2.1866 10.6311 2.59089
618 1 2.92244 12.5563 0.751014
619 1 2.19746 11.1378 1.67327
620 1 1.67101 11.1001 0.847927
621 1 3.34177 11.2708 1.7641
622 1 3.98372 11.8921 12.8472
623 1 3.3227 11.9879 2.36488
624 1 3.82713 11.357 0.742278
625 1 0.0981779 11.9077 1.64353
626 1 13.4243 12.6892 12.2014
627 1 0.0346717 12.6667 2.50856
628 1 0.700361 12.774 0.172973
629 1 1.21325 12.2556 1.75845
630 1 1.89553 0.49821 12.9119
631 1 1.08849 12.8201 2.47335
632 1 1.72173 12.2763 0.862016
633 1 2.28241 12.2497 1.56026
634 1 1.79778 12.7273 12.9488
635 1 2.30929 12.9149 2.42521
636 1 2.95175 13.0842 12.8898
637 1 3.47772 12.5425 1.52572
638 1 4.00446 0.0975929 0.841634
639 1 3.96156 13.0606 3.16035
640 1 3.94615 12.3459 0.803928
641 1 0.617287 9.72543 4.11745
642 1 0.515773 7.45963 3.81786
643 1 1.49476 9.28487 3.10597
644 1 1.68048 8.93149 4.11582
645 1 2.88202 8.45595 3.19313
646 1 2.7841 8.91452 3.92567
647 1 3.21249 9.51358 2.50396
648 1 3.84538 9.859 3.25273
649 1 0.558833 10.3719 3.27079
650 1 0.00108364 9.61764 4.74544
651 1 1.63376 10.3404 3.24885
652 1 1.65447 9.93711 4.10296
653 1 2.74019 10.0927 4.06284
654 1 3.8515 10.2777 4.09156
655 1 3.95517 10.9311 3.16552
656 1 4.51284 10.4267 4.832
657 1 0.692068 11.538 3.37696
658 1 0.61325 10.8532 4.10331
659 1 2.19268 11.7874 2.40541
660 1 1.71758 11.665 3.30241
661 1 2.89029 11.7727 3.18608
662 1 2.62727 11.1978 4.10609
663 1 3.9119 11.9477 3.321
664 1 4.00802 11.326 4.0745
665 1 0.573182 13.2938 4.02643
666 1 0.663495 12.6268 3.35454
667 1 1.80041 12.7267 3.20559
668 1 1.72519 12.2378 4.0659
669 1 2.8598 13.0373 3.18202
670 1 2.79612 12.3991 4.00832
671 1 3.89761 0.159637 4.18284
672 1 3.8571 12.5118 4.07226
673 1 4.38631 9.28421 1.52098
674 1 5.25529 9.83934 12.8976
675 1 4.36044 9.7734 2.38725
676 1 5.04323 9.40466 0.767112
677 1 5.56571 9.3505 1.58201
678 1 6.15335 10.9917 0.020092
679 1 5.56568 9.85051 2.37209
680 1 6.2046 9.36751 0.807647
681 1 6.66751 9.2568 1.66017
682 1 7.30766 9.86671 12.9254
683 1 6.75873 9.84529 2.47418
684 1 7.3059 9.26235 0.705814
685 1 8.44081 9.06419 0.878898
686 1 8.41015 9.50047 0.0339495
687 1 7.84862 10.285 1.48473
688 1 8.34203 8.40213 12.9333
689 1 4.43463 10.3607 1.65858
690 1 5.01356 10.9365 12.9464
691 1 4.50894 10.985 2.38638
692 1 4.912 10.5044 0.837343
693 1 5.54571 10.404 1.65205
694 1 5.5606 11.0733 12.1898
695 1 5.66319 11.1251 2.41638
696 1 6.23266 9.98549 0.0702674
697 1 6.12427 10.573 0.921392
698 1 7.13725 11.0251 0.0236625
699 1 6.76579 10.9541 2.30171
700 1 6.78634 10.388 1.60875
701 1 7.26404 10.3017 0.852879
702 1 8.31723 10.8208 0.00610955
703 1 7.88551 10.8264 2.37349
704 1 8.52631 10.2244 0.588071
705 1 4.45737 11.5157 1.565
706 1 5.05868 12.0733 0.0680994
707 1 4.49255 12.0651 2.48761
708 1 5.12149 11.4603 0.794842
709 1 5.56106 11.5664 1.688
710 1 6.17467 12.0906 12.9197
711 1 5.58812 12.8072 1.62511
712 1 6.18886 11.661 0.868552
713 1 6.78656 11.6354 1.65432
714 1 7.23995 12.036 0.0933043
715 1 6.71249 12.2117 2.55771
716 1 7.27459 11.397 0.85065
717 1 7.9673 11.3522 1.5629
718 1 8.40994 11.9132 12.8245
719 1 7.75145 11.8675 2.45944
720 1 8.44559 11.4508 0.761448
721 1 4.56996 12.6552 1.70613
722 1 5.63289 13.304 12.1636
723 1 4.39339 0.963881 2.54187
724 1 5.08608 13.1913 0.0503436
725 1 4.94114 12.6096 0.855706
726 1 6.21276 0.343067 0.886878
727 1 5.66861 13.2994 2.53148
728 1 6.14358 12.6969 0.853626
729 1 6.80647 12.6079 1.4335
730 1 7.20601 13.2523 12.9054
731 1 6.76055 13.1136 2.18827
732 1 7.44943 12.5891 0.755526
733 1 7.89602 12.4583 1.68921
734 1 8.54628 13.091 12.8735
735 1 7.83594 13.0113 2.38045
736 1 8.38157 12.452 0.681402
737 1 4.96031 9.97666 3.15954
738 1 4.99273 9.31293 4.01546
739 1 6.07851 9.99988 3.2127
740 1 6.07043 9.28043 3.89621
741 1 7.88976 9.72906 2.20696
742 1 7.16696 9.23031 4.10626
743 1 8.34553 9.58964 3.08347
744 1 9.02973 9.02821 4.86656
745 1 5.10109 10.9534 3.14134
746 1 4.97924 10.4637 4.00497
747 1 6.16163 11.0345 3.23247
748 1 6.32539 10.3549 3.98159
749 1 7.26132 10.8193 3.07133
750 1 7.35554 10.2895 4.04484
751 1 8.31515 10.7186 3.22913
752 1 8.42549 10.0323 3.871
753 1 5.58636 12.2798 2.29302
754 1 5.03952 12.2484 3.25406
755 1 6.10325 12.0639 3.17834
756 1 6.25199 11.5727 4.18355
757 1 7.43625 12.0194 3.2879
758 1 7.3331 11.2602 3.90052
759 1 8.46799 11.8085 3.25484
760 1 8.37524 11.1892 4.06084
761 1 5.00138 0.409345 3.99679
762 1 5.12271 12.8636 4.09397
763 1 6.20989 13.1981 3.26529
764 1 6.21925 12.5763 3.96884
765 1 7.29981 13.261 3.16631
766 1 7.19233 12.6224 3.92062
767 1 8.49822 12.9298 3.17114
768 1 8.34819 12.3009 4.07579
769 1 9.01698 9.06236 1.55792
770 1 9.56155 8.97945 0.737315
771 1 9.0702 9.62894 2.39704
772 1 9.57851 9.53035 12.9345
773 1 10.1046 8.8661 1.68688
774 1 10.1099 9.40535 12.195
775 1 10.064 9.34067 2.53864
776 1 10.6415 8.76048 0.871935
777 1 11.1737 8.54984 1.64591
778 1 11.8901 9.17345 0.168951
779 1 11.2624 9.21604 2.36488
780 1 11.7442 8.45721 0.713343
781 1 12.224 8.68165 1.61365
782 1 12.9329 9.11557 0.0437583
783 1 12.4138 9.26553 2.53465
784 1 12.8771 8.50003 0.753126
785 1 8.86127 10.1309 1.55947
786 1 9.55905 10.6117 12.9098
787 1 9.04439 10.5957 2.43369
788 1 9.6013 10.0623 0.810936
789 1 10.1099 9.95551 1.68697
790 1 11.2268 9.82975 1.63709
791 1 10.1369 10.5366 2.39629
792 1 10.7787 9.08454 12.8887
793 1 11.7355 9.76007 0.814431
794 1 11.7416 10.2648 12.9231
795 1 11.7083 10.2922 3.39469
796 1 12.867 9.81275 0.830294
797 1 12.2997 9.647 1.5419
798 1 12.9476 10.24 0.00498364
799 1 12.4032 10.256 2.41595
800 1 13.4073 9.79813 1.56508
801 1 9.05647 11.1753 1.59842
802 1 9.57011 11.8582 0.017218
803 1 8.89493 11.7916 2.41193
804 1 9.45649 11.2171 0.659245
805 1 9.98154 11.0933 1.46872
806 1 10.6221 11.5075 0.0531501
807 1 10.0873 11.686 2.30981
808 1 10.702 9.79883 0.758386
809 1 10.6143 10.933 0.766381
810 1 11.9297 10.9125 0.828144
811 1 11.0733 11.5354 2.39855
812 1 11.15 10.8932 1.50397
813 1 12.3062 10.892 1.69821
814 1 12.7142 11.378 12.9412
815 1 12.4211 11.4903 2.59013
816 1 12.9257 10.8898 0.73327
817 1 8.86493 12.3505 1.66512
818 1 9.63033 12.9461 0.106497
819 1 9.05558 13.3877 1.64936
820 1 9.3763 12.3788 0.871929
821 1 10.0468 12.2697 1.50748
822 1 10.6908 12.5639 12.9377
823 1 10.1373 12.7128 2.61952
824 1 10.6134 12.1397 0.863217
825 1 11.3101 11.8757 1.57289
826 1 0.0873528 12.0672 11.4203
827 1 11.2027 12.5516 2.30516
828 1 11.7731 11.9759 0.715928
829 1 12.4113 11.9256 1.6613
830 1 11.8715 12.4957 12.8925
831 1 12.3668 12.5232 2.40594
832 1 12.944 11.9074 0.910685
833 1 9.53336 9.44127 3.35825
834 1 10.0578 8.94856 4.89448
835 1 10.6611 9.22193 3.15509
836 1 10.6084 8.73515 4.10597
837 1 11.3496 10.4104 2.41819
838 1 11.7099 8.4529 3.94555
839 1 12.8576 9.15817 3.3131
840 1 12.876 8.5054 3.98571
841 1 9.52291 10.6782 3.23027
842 1 9.56902 10.0768 4.0098
843 1 10.6494 10.4175 3.18784
844 1 10.6871 9.78554 3.98321
845 1 11.6696 9.6108 3.98959
846 1 11.7448 9.12498 3.23169
847 1 12.7048 10.4451 3.25502
848 1 12.9646 9.86042 3.94285
849 1 9.5376 11.6908 3.03581
850 1 9.48847 11.25 4.03881
851 1 10.5811 11.4922 3.29354
852 1 10.518 11.0044 4.0472
853 1 11.6826 11.4035 3.13582
854 1 11.7555 10.92 4.00004
855 1 13.0334 11.4858 3.32451
856 1 12.8632 10.8399 4.15082
857 1 9.07941 13.0054 2.46584
858 1 9.55726 12.8151 3.36244
859 1 10.7782 12.6656 3.28708
860 1 10.7203 12.0808 4.03034
861 1 11.866 12.5592 3.1305
862 1 11.7202 11.9114 4.04258
863 1 12.9837 12.6566 3.31617
864 1 12.7263 11.9125 4.09558
865 1 13.432 13.1456 4.87034
866 1 0.0319274 0.259212 5.59388
867 1 1.08798 13.1949 4.88548
868 1 1.06848 0.356884 5.69277
869 1 2.37286 12.9521 5.76026
870 1 2.18222 13.4278 4.9753
871 1 3.27449 0.120254 4.85229
872 1 2.91899 0.705914 6.47175
873 1 0.145681 0.931533 4.78913
874 1 0.0286127 1.37151 5.6035
875 1 1.21956 0.948517 4.98159
876 1 0.457568 1.45843 6.4616
877 1 2.25548 1.13248 4.93725
878 1 1.52415 1.68943 6.53835
879 1 2.79258 1.15882 4.08933
880 1 3.44109 1.88363 5.72359
881 1 13.4056 2.00455 4.93839
882 1 0.0638092 2.55634 5.72214
883 1 1.1355 1.58631 5.63422
884 1 2.31868 2.77505 5.69581
885 1 2.14153 1.70985 5.75403
886 1 1.8143 2.15672 4.11196
887 1 2.7637 3.00098 6.50947
888 1 3.42061 3.02785 5.79724
889 1 13.4245 3.15836 4.97425
890 1 13.3331 3.70681 5.79134
891 1 1.18164 2.63741 5.64921
892 1 1.11074 3.8281 5.65857
893 1 2.12523 3.34828 4.89499
894 1 2.37766 4.02782 5.66263
895 1 3.25341 3.42303 4.85214
896 1 3.36849 4.12174 5.67307
897 1 13.4208 13.1501 8.0076
898 1 0.50772 0.333921 6.48512
899 1 0.626306 12.7002 6.22447
900 1 0.577565 13.151 7.13188
901 1 1.79366 13.3932 7.20735
902 1 1.67036 0.513712 6.39562
903 1 2.23609 0.0328347 8.01959
904 1 2.91705 0.0902719 7.18125
905 1 3.39082 0.191458 8.04143
906 1 3.36827 1.00353 8.90014
907 1 3.4092 0.709335 5.5705
908 1 3.90994 0.690495 6.53646
909 1 0.0830341 0.691619 8.08205
910 1 0.639849 2.0165 7.38159
911 1 0.705826 0.901941 7.2414
912 1 2.3815 0.500532 8.88687
913 1 1.82554 1.12002 7.28277
914 1 1.76225 0.536824 9.58971
915 1 2.82069 1.19566 7.38596
916 1 2.76056 1.73903 6.39111
917 1 2.30719 0.584176 5.77791
918 1 2.92598 0.671398 9.71387
919 1 4.01711 2.56955 7.32803
920 1 3.9449 1.18006 7.38616
921 1 0.0252542 2.045 7.95065
922 1 1.22771 2.15607 7.9743
923 1 1.12969 2.68543 8.84554
924 1 1.14693 1.02063 8.09
925 1 1.62157 3.45275 7.3106
926 1 1.80846 2.3378 7.18317
927 1 2.27408 2.34178 8.11198
928 1 1.69204 2.85688 6.45073
929 1 2.86775 2.27561 7.26426
930 1 2.90732 1.7514 9.60264
931 1 3.31347 2.88052 8.91587
932 1 3.41542 2.34476 8.24947
933 1 0.00236919 3.19783 8.16604
934 1 0.597372 3.76051 6.40276
935 1 0.568745 2.64576 6.59783
936 1 0.558725 3.18423 7.31954
937 1 1.74728 3.8952 6.43365
938 1 2.3484 3.30636 7.8027
939 1 3.0533 3.44773 7.33358
940 1 2.86148 4.0773 6.55803
941 1 3.54171 3.54203 8.05718
942 1 3.45806 3.94841 9.01808
943 1 4.47052 4.30363 5.88062
944 1 3.84501 1.91308 6.71689
945 1 4.5465 0.481854 4.80829
946 1 4.44474 0.826324 5.63565
947 1 5.71393 0.4178 4.75048
948 1 5.6251 1.02779 5.58305
949 1 6.66821 0.208804 4.91016
950 1 6.7031 0.900397 5.70139
951 1 8.04021 0.137967 5.04101
952 1 8.27016 0.678723 6.36982
953 1 3.29861 1.37312 4.8599
954 1 3.87054 3.68345 4.1851
955 1 5.50548 1.46627 4.80294
956 1 5.56381 2.01511 5.65381
957 1 6.21921 1.41384 4.0458
958 1 6.88235 3.15945 5.6364
959 1 7.84785 1.32388 4.89359
960 1 7.78343 1.92649 5.69265
961 1 4.50843 2.00264 5.77056
962 1 5.09504 3.84509 7.2462
963 1 5.68332 2.64817 4.88073
964 1 5.1134 3.22857 6.4889
965 1 6.81913 2.60714 4.89456
966 1 6.91969 4.1716 5.73854
967 1 7.89773 2.40785 4.73602
968 1 7.94921 2.94687 5.4871
969 1 5.53384 3.78776 4.91479
970 1 4.02801 4.68951 7.24562
971 1 5.11665 4.82774 4.08317
972 1 5.50126 4.83823 4.88735
973 1 6.66812 3.72715 4.86905
974 1 6.66789 4.77871 4.92
975 1 8.04834 3.95421 5.79368
976 1 8.457 3.87671 6.61948
977 1 4.26676 0.308577 7.78901
978 1 5.02653 0.910252 6.4098
979 1 5.04886 0.462775 7.33758
980 1 5.58528 0.433789 8.06404
981 1 6.0455 1.00255 6.55236
982 1 6.17437 0.354763 7.31731
983 1 6.67681 13.186 8.81514
984 1 7.71329 0.64919 5.61404
985 1 6.71469 0.349797 8.14623
986 1 7.85523 0.126411 8.08438
987 1 8.44339 0.211319 7.31446
988 1 8.43892 13.0979 6.59258
989 1 4.3944 1.59846 8.05881
990 1 4.97779 2.10361 6.46126
991 1 4.95024 1.61208 7.2962
992 1 5.66788 1.56176 8.08292