data.lammps (converted from cfg to data.lammps)
    
2298  atoms
1  atom types
0.0   13.4375  xlo xhi
0.0   13.4375  ylo yhi
0.0   12.952  zlo zhi
0.0  0.0 0.0 xy xz yz
    
    
    
Atoms
  
1 1 13.371 0.112628 1.62278
2 1 0.501479 0.55467 0.209978
3 1 0.0422874 0.629578 2.44828
4 1 0.50079 0.0156988 0.974477
5 1 1.22443 13.3916 1.56516
6 1 1.58898 0.402733 0.127979
7 1 1.08595 0.531344 2.48817
8 1 1.74964 13.2388 0.849085
9 1 2.3965 13.2987 1.62312
10 1 2.75393 0.308068 12.8709
11 1 2.1851 0.469385 2.4901
12 1 2.92164 13.1335 0.780295
13 1 3.509 13.0659 1.68491
14 1 4.04355 0.100515 12.9471
15 1 3.37518 0.210148 2.5185
16 1 3.88862 13.0604 0.783109
17 1 0.00677579 1.16672 1.54442
18 1 0.588665 1.79806 12.8933
19 1 0.00415619 1.61876 2.52879
20 1 0.611887 1.22844 0.743441
21 1 1.12533 0.987547 1.70709
22 1 1.61896 1.44573 0.0403193
23 1 1.09095 1.65739 2.5492
24 1 1.73703 1.04666 0.866006
25 1 2.33849 0.995775 1.6397
26 1 2.71169 1.35961 12.9264
27 1 2.38986 1.52311 2.43511
28 1 2.78159 0.809304 0.787123
29 1 3.37946 0.664586 1.61484
30 1 3.77594 1.25657 12.9176
31 1 3.54741 1.32727 2.51141
32 1 3.84221 0.666239 0.714914
33 1 13.3379 2.2331 1.79828
34 1 0.5258 2.89488 0.0975315
35 1 0.0317985 2.8813 2.46056
36 1 0.520102 2.21958 0.956299
37 1 1.12477 2.0762 1.7207
38 1 1.56482 2.75615 0.0879546
39 1 1.08686 2.75088 2.56428
40 1 1.64209 2.23252 0.702812
41 1 2.06907 2.02633 1.55161
42 1 2.68229 2.45272 12.8945
43 1 2.25352 2.5889 2.54863
44 1 2.80224 2.03206 0.78682
45 1 3.23979 1.81144 1.57438
46 1 3.89392 2.31415 12.8857
47 1 3.33348 2.29456 2.32016
48 1 3.94693 1.72133 0.838994
49 1 13.3953 3.42914 1.5714
50 1 0.657856 3.94919 0.0092071
51 1 13.4243 4.01961 2.26288
52 1 0.564132 3.36804 0.93244
53 1 1.28918 3.11233 1.63849
54 1 1.69127 3.89753 0.0208767
55 1 1.10042 3.82257 2.48325
56 1 1.68958 3.27569 0.912626
57 1 2.38658 3.04885 1.70166
58 1 2.6691 3.67435 0.0390437
59 1 2.06459 3.64714 2.35346
60 1 2.82396 3.10443 0.827764
61 1 3.51732 3.03248 1.5767
62 1 3.88936 3.42761 12.9135
63 1 3.41057 3.48979 2.5088
64 1 4.01517 2.75837 0.741255
65 1 0.472898 0.667736 3.36547
66 1 0.474047 0.0605853 3.99094
67 1 1.63004 0.469936 3.24405
68 1 1.57888 13.3316 4.00399
69 1 2.81517 0.187344 3.20453
70 1 2.75442 13.2501 4.07836
71 1 3.94905 0.188783 3.2506
72 1 3.73399 13.0888 4.05041
73 1 0.595171 1.83025 3.35936
74 1 0.506204 1.21342 4.12355
75 1 1.83054 1.564 3.14651
76 1 1.67911 1.0329 4.16275
77 1 2.90955 1.44833 3.29728
78 1 2.72103 0.907289 3.9211
79 1 4.03968 1.29318 3.34923
80 1 3.92453 0.694365 4.09035
81 1 0.53101 2.85142 3.26225
82 1 0.465933 2.45191 4.09962
83 1 1.74589 2.73973 3.30542
84 1 1.61508 2.09788 3.92582
85 1 2.90513 2.57859 3.21311
86 1 2.6411 2.07888 4.11639
87 1 3.85042 2.53047 3.43614
88 1 3.91386 1.933 4.16202
89 1 0.517569 3.99356 3.21414
90 1 0.731821 3.57925 4.07651
91 1 1.77367 3.9795 3.30047
92 1 1.69714 3.27776 3.99697
93 1 2.76713 3.67826 3.13885
94 1 2.87925 3.13897 4.07232
95 1 4.05173 3.61134 3.14428
96 1 3.94259 3.04156 4.11695
97 1 4.42291 12.9371 1.62981
98 1 5.09624 0.2422 12.917
99 1 4.54579 0.0529059 2.44662
100 1 5.03249 13.0913 0.803243
101 1 5.57009 13.0485 1.59231
102 1 6.11097 0.416624 0.08435
103 1 5.59856 0.13685 2.353
104 1 6.13165 13.2699 0.870969
105 1 6.8379 13.2754 1.62667
106 1 7.2364 0.522664 0.170043
107 1 6.68974 0.408204 2.43437
108 1 7.39857 13.3032 0.77514
109 1 7.85887 0.0491229 1.71865
110 1 8.31412 0.651349 12.9496
111 1 7.77418 0.657888 2.46973
112 1 8.48965 0.0192835 0.807792
113 1 4.50601 0.676215 1.62033
114 1 4.96212 1.28408 0.00492456
115 1 4.55138 1.15217 2.45468
116 1 4.97849 0.723918 0.858289
117 1 5.6739 0.84128 1.64032
118 1 6.11894 1.41367 12.9132
119 1 5.55106 1.33857 2.44132
120 1 6.21217 0.925783 0.819502
121 1 6.81292 0.96712 1.70871
122 1 7.27895 1.65227 0.0647856
123 1 6.60903 1.5861 2.42411
124 1 7.23693 1.1329 0.870518
125 1 7.9729 1.1057 1.66292
126 1 8.41131 1.74661 0.0519186
127 1 7.82729 1.71678 2.48009
128 1 8.43651 1.13749 0.861706
129 1 4.45648 1.66954 1.70115
130 1 5.10194 2.3129 0.0335016
131 1 4.3285 2.31281 2.59071
132 1 5.16044 1.75565 0.816796
133 1 5.5699 2.01318 1.58279
134 1 6.24642 2.53575 0.0363322
135 1 5.57627 2.41731 2.48913
136 1 6.16483 1.97938 0.853051
137 1 6.82969 2.17232 1.75062
138 1 7.24667 2.80111 12.8875
139 1 6.69095 2.75672 2.44992
140 1 7.18068 2.23799 0.833178
141 1 7.91305 2.31732 1.72785
142 1 8.40948 2.95188 0.0578478
143 1 7.83385 2.89016 2.47991
144 1 8.21379 2.32559 0.760891
145 1 4.52614 2.7201 1.64112
146 1 5.1357 3.43972 12.8604
147 1 4.542 3.42232 2.39734
148 1 4.94427 2.98499 0.709372
149 1 5.52323 2.9614 1.67644
150 1 6.25545 3.80072 0.0105084
151 1 5.73995 3.62542 2.41153
152 1 6.10339 3.19942 0.738044
153 1 6.65371 3.19669 1.51931
154 1 7.30046 3.81828 0.0142486
155 1 6.76846 3.73841 2.37395
156 1 7.41888 3.34782 0.868478
157 1 7.91363 3.46353 1.64239
158 1 8.38986 4.01642 12.9023
159 1 7.83758 3.96914 2.49031
160 1 8.65117 3.42472 0.857649
161 1 5.12434 0.220603 3.32651
162 1 4.84582 13.068 4.06517
163 1 6.14891 0.316609 3.23093
164 1 6.17374 13.1442 4.15851
165 1 7.18703 0.547373 3.31295
166 1 7.2858 13.4147 4.02095
167 1 8.38523 0.679349 3.15613
168 1 8.49687 0.121081 4.09967
169 1 5.12051 1.32059 3.31443
170 1 5.06439 0.740666 4.07956
171 1 6.18517 1.33487 3.20787
172 1 6.3271 0.850267 4.15555
173 1 7.20075 1.68189 3.25911
174 1 7.39877 1.03015 4.002
175 1 8.3361 1.93542 3.29637
176 1 8.40018 1.186 3.90977
177 1 4.94683 2.49052 3.13511
178 1 4.93159 1.93646 4.07311
179 1 6.25784 2.5598 3.23863
180 1 6.02219 1.94122 3.9038
181 1 7.35292 2.72893 3.24471
182 1 7.2442 2.22434 4.15375
183 1 8.39613 2.9247 3.38389
184 1 8.55446 2.39686 4.12727
185 1 5.19744 3.50681 3.17803
186 1 5.05328 2.97571 4.01221
187 1 6.2556 3.75437 3.14148
188 1 6.0857 3.16854 3.96505
189 1 7.31912 3.85577 3.30893
190 1 7.21654 3.29149 4.07893
191 1 8.37983 3.96323 3.15626
192 1 8.45303 3.61602 4.17588
193 1 8.91281 0.11004 1.63307
194 1 9.55077 0.905687 12.8877
195 1 9.00683 0.688189 2.32942
196 1 9.45531 0.36127 0.810074
197 1 9.9837 0.370604 1.664
198 1 10.5831 1.16158 0.0689818
199 1 10.1403 0.82173 2.47061
200 1 10.5403 0.398219 0.902884
201 1 11.1878 0.403595 1.60913
202 1 11.7708 0.949146 0.0189488
203 1 11.3033 0.9374 2.41481
204 1 11.7848 0.443814 0.811904
205 1 12.3933 0.482422 1.58289
206 1 12.9554 0.937009 0.101135
207 1 12.3377 0.936087 2.43101
208 1 12.8588 0.182708 0.733535
209 1 9.01404 1.40003 1.68486
210 1 9.42688 2.05048 0.045073
211 1 8.94772 1.746 2.60194
212 1 9.47778 1.33373 0.82795
213 1 10.0868 1.42755 1.72894
214 1 10.5849 2.25544 0.0528269
215 1 10.1593 1.9099 2.4864
216 1 10.6843 1.54598 0.89034
217 1 11.1382 1.62582 1.79946
218 1 11.7969 2.10809 0.0356299
219 1 11.2628 2.2018 2.44817
220 1 11.6584 1.5342 0.781042
221 1 12.2017 1.57617 1.58014
222 1 12.8586 1.9314 0.0489555
223 1 12.3902 1.94442 2.48336
224 1 12.8659 1.4034 0.992231
225 1 8.91335 2.35223 1.65313
226 1 9.63716 3.09666 0.0395945
227 1 9.00155 2.91763 2.47558
228 1 9.38779 2.42312 0.881906
229 1 9.9792 2.60145 1.65738
230 1 10.8424 3.2132 12.8767
231 1 10.1546 2.97887 2.42802
232 1 10.553 2.62796 0.865177
233 1 11.1882 2.69214 1.51068
234 1 11.7095 3.21777 12.9191
235 1 11.2744 3.14892 2.4685
236 1 11.8455 2.76346 0.847461
237 1 12.387 2.63372 1.60452
238 1 12.8858 2.99971 0.0244592
239 1 12.3315 3.02489 2.43446
240 1 12.9706 2.46493 0.80723
241 1 9.00777 3.52967 1.66346
242 1 9.66081 4.28687 12.938
243 1 8.99186 4.04669 2.41568
244 1 9.74356 3.63865 0.698459
245 1 10.0764 3.70225 1.69714
246 1 10.646 4.23981 12.8593
247 1 10.0547 4.22832 2.44688
248 1 10.7194 3.73575 0.857678
249 1 11.236 3.822 1.63681
250 1 11.8695 4.35578 12.8819
251 1 11.1757 4.30851 2.50449
252 1 11.7391 3.81896 0.825805
253 1 12.3243 3.76977 1.66776
254 1 13.0848 4.1449 0.126259
255 1 12.3997 4.24124 2.41785
256 1 12.765 3.59878 0.853305
257 1 9.56018 0.793956 3.26787
258 1 9.45041 0.101131 3.82009
259 1 10.6523 0.937029 3.15781
260 1 10.6172 0.362921 4.10607
261 1 11.7876 0.871572 3.24905
262 1 11.6773 0.351329 4.13029
263 1 12.8298 0.580161 3.31955
264 1 12.8532 0.155262 4.22454
265 1 9.57066 1.89025 3.18873
266 1 9.51367 1.41658 4.01651
267 1 10.6367 2.0975 3.27364
268 1 10.6457 1.45105 4.04453
269 1 11.7685 1.99008 3.30276
270 1 11.7244 1.50575 4.04665
271 1 12.9059 1.92433 3.44557
272 1 12.8668 1.20376 3.95524
273 1 9.51571 3.05457 3.19359
274 1 9.6245 2.43728 4.07703
275 1 10.5957 3.17571 3.29454
276 1 10.6636 2.57983 4.11526
277 1 11.8106 3.31513 3.21847
278 1 11.7371 2.74153 3.94644
279 1 12.9046 3.16813 3.19526
280 1 12.8474 2.55119 4.10075
281 1 9.50403 4.12323 3.25726
282 1 9.5259 3.57767 4.12149
283 1 10.6509 4.39554 3.15912
284 1 10.6395 3.79222 3.99116
285 1 11.7094 4.36087 3.28345
286 1 11.8252 3.7749 4.18761
287 1 12.9541 4.28737 3.14657
288 1 12.8663 3.69655 3.95803
289 1 0.0496182 4.6695 1.66494
290 1 0.585505 5.13351 0.00387243
291 1 0.00169545 5.21755 2.36031
292 1 0.657461 4.36059 0.804196
293 1 1.14034 4.25627 1.59223
294 1 1.63873 4.95786 12.9404
295 1 1.2075 4.97475 2.28349
296 1 1.81047 4.41109 0.92365
297 1 2.43154 4.16667 1.5836
298 1 2.78383 4.71584 0.0322551
299 1 2.25739 4.73253 2.40354
300 1 3.0149 4.10358 0.824204
301 1 3.46755 4.12883 1.77718
302 1 4.07936 4.64395 0.127918
303 1 3.44097 4.71742 2.42783
304 1 3.9487 3.94986 0.72844
305 1 13.3648 5.80704 1.53097
306 1 0.650503 6.19871 0.00171889
307 1 13.4127 6.37089 2.37572
308 1 0.588295 5.54975 0.931181
309 1 1.10558 5.59666 1.565
310 1 1.78654 5.98829 12.858
311 1 0.999019 6.14006 2.40288
312 1 1.75644 5.36578 0.78772
313 1 2.19932 5.34748 1.63984
314 1 2.98077 5.82168 12.8678
315 1 2.1756 6.01894 2.40709
316 1 2.87948 5.32689 0.670539
317 1 3.23922 5.22677 1.60214
318 1 3.98572 5.71217 12.9457
319 1 3.33918 5.8699 2.33221
320 1 3.90687 5.10988 0.926705
321 1 0.0441934 6.92281 1.55535
322 1 0.530178 7.44892 0.0192349
323 1 0.0734491 7.43303 2.37961
324 1 0.528463 6.79288 0.705815
325 1 1.11686 6.66754 1.60126
326 1 1.7132 7.21027 12.9485
327 1 1.11576 7.19373 2.55039
328 1 1.62512 6.46694 0.711381
329 1 2.24037 6.55801 1.67383
330 1 2.74722 6.94787 0.143882
331 1 2.30676 7.08675 2.47041
332 1 2.74087 6.32589 0.822594
333 1 3.33707 6.39704 1.53954
334 1 3.8945 6.9069 0.0880345
335 1 3.34807 6.85597 2.46128
336 1 3.93895 6.29744 0.815812
337 1 13.3971 7.96834 1.50796
338 1 0.522282 8.51637 0.0483023
339 1 0.030677 8.45025 2.41885
340 1 0.529525 7.91832 0.777112
341 1 1.06902 7.76859 1.65353
342 1 1.70959 8.31152 0.00317
343 1 1.23274 8.35454 2.42331
344 1 1.59928 7.60382 0.817987
345 1 2.14258 7.60025 1.58096
346 1 2.83159 8.10647 12.9428
347 1 2.27396 8.20378 2.44115
348 1 2.78635 7.57716 0.794021
349 1 3.40375 7.44292 1.48904
350 1 3.96148 8.06034 0.0250081
351 1 3.27876 7.86508 2.34717
352 1 4.05739 7.46511 0.738798
353 1 0.615716 5.08347 3.00505
354 1 0.5862 4.64843 3.97519
355 1 1.70637 5.06162 3.17656
356 1 1.72781 4.46989 4.07329
357 1 2.80516 4.76427 3.19352
358 1 2.83863 4.17857 4.03163
359 1 3.93766 4.65087 3.19346
360 1 3.83767 4.08101 3.93387
361 1 0.575806 6.14254 3.30203
362 1 0.542948 5.69778 4.13915
363 1 1.67842 6.08254 3.18734
364 1 1.71933 5.50798 4.02701
365 1 2.86449 5.83575 3.1641
366 1 2.78913 5.29458 4.06995
367 1 3.92977 5.64872 3.33346
368 1 3.93326 5.2088 4.18043
369 1 0.574178 7.32544 3.26337
370 1 0.674318 6.85623 4.08655
371 1 1.69346 7.18385 3.32844
372 1 1.77508 6.53826 4.01765
373 1 2.81278 6.98937 3.31661
374 1 2.84704 6.47177 4.0134
375 1 3.91797 6.79823 3.19447
376 1 3.9081 6.38029 3.9758
377 1 0.609608 8.37433 3.26197
378 1 0.529388 7.92318 4.18829
379 1 1.65512 8.29715 3.28954
380 1 1.89545 7.64705 4.03457
381 1 2.91424 8.22793 3.16165
382 1 2.8878 7.69824 3.92743
383 1 3.93285 7.91148 3.24808
384 1 4.08466 7.43498 4.01219
385 1 4.39918 3.98623 1.643
386 1 5.19561 4.45625 12.8602
387 1 4.6643 4.63375 2.45499
388 1 5.03093 4.07425 0.811587
389 1 5.63094 4.77635 2.37507
390 1 6.16787 4.36692 0.898778
391 1 6.19509 4.77894 3.33983
392 1 5.59923 4.12049 1.59004
393 1 6.84174 4.33513 1.67493
394 1 7.24788 4.88203 12.8921
395 1 6.67157 4.9179 2.43416
396 1 7.29545 4.42572 0.810347
397 1 7.95337 4.55351 1.57938
398 1 8.30007 5.24505 12.8902
399 1 7.81141 5.04819 2.43684
400 1 8.38313 4.53864 0.70922
401 1 4.55936 5.14612 1.5315
402 1 5.02936 5.79438 0.128812
403 1 4.31864 5.68203 2.40156
404 1 5.07498 5.11646 0.66887
405 1 5.62998 5.17006 1.50599
406 1 6.08106 5.95008 12.9262
407 1 5.58198 5.80308 2.51264
408 1 6.22511 5.49169 0.74395
409 1 6.70822 5.41813 1.57854
410 1 7.30144 6.12143 12.8605
411 1 6.79716 6.11217 2.37097
412 1 7.22986 5.54486 0.699382
413 1 7.81512 5.62081 1.622
414 1 8.48281 6.28735 12.9426
415 1 7.9175 6.09884 2.38891
416 1 8.40716 5.62525 0.862439
417 1 4.46503 6.20728 1.66811
418 1 5.12913 6.93923 12.9504
419 1 4.54409 6.85847 2.46227
420 1 5.1018 6.51027 0.788426
421 1 5.56837 6.27972 1.64378
422 1 6.22219 6.94766 12.789
423 1 5.63338 6.96855 2.35602
424 1 6.10189 6.49029 0.823001
425 1 6.73072 6.53095 1.5953
426 1 7.2213 7.19524 0.000332781
427 1 6.70467 7.11981 2.43464
428 1 7.28788 6.63374 0.780166
429 1 7.80767 6.76629 1.56167
430 1 8.36648 6.77173 0.698986
431 1 7.8498 7.29444 2.4087
432 1 8.97216 6.89574 1.48251
433 1 4.49519 7.30699 1.64948
434 1 4.88985 7.99941 12.8274
435 1 4.49898 7.93887 2.40199
436 1 5.12278 7.55013 0.998642
437 1 5.77413 7.42867 1.71148
438 1 6.00967 8.1632 0.0733502
439 1 5.44017 8.10022 2.23352
440 1 6.16334 7.59704 0.740516
441 1 6.78543 7.71264 1.56306
442 1 7.24281 8.3818 0.019243
443 1 6.72317 8.13424 2.46321
444 1 7.33974 7.83154 0.704001
445 1 7.85333 7.76627 1.55595
446 1 8.46757 7.91932 0.70884
447 1 7.96079 8.94361 1.61945
448 1 8.4844 7.39295 12.8834
449 1 5.03584 4.7146 3.31073
450 1 5.06075 4.09974 3.91933
451 1 6.06833 5.39608 4.02796
452 1 6.21397 4.20658 4.28668
453 1 7.22761 5.05716 3.10634
454 1 7.28656 4.47234 4.07694
455 1 8.43543 5.14349 3.18371
456 1 8.32108 4.58672 4.00862
457 1 4.99522 5.35038 4.09391
458 1 4.58774 5.30232 4.972
459 1 6.18198 5.96282 3.17
460 1 6.14195 6.42411 4.04473
461 1 7.4016 6.0797 3.36286
462 1 7.80768 5.63488 4.91329
463 1 8.63273 6.27459 3.1621
464 1 7.79116 5.10083 5.60752
465 1 5.09663 6.89385 3.24382
466 1 4.91941 5.80684 3.13696
467 1 6.14278 7.05556 3.22062
468 1 5.1516 6.23605 4.1753
469 1 7.17729 7.79941 4.07621
470 1 7.3075 7.21527 3.19968
471 1 8.41134 7.35429 3.19028
472 1 8.41206 6.87084 3.99387
473 1 5.08318 8.00203 3.25071
474 1 5.07915 7.42355 4.09059
475 1 6.09567 8.15502 3.0834
476 1 6.21939 7.535 4.09621
477 1 7.29925 8.31014 3.2619
478 1 6.75198 7.59482 4.94364
479 1 7.82647 8.44923 2.38453
480 1 8.36697 7.93303 4.07912
481 1 8.96132 4.59721 1.62425
482 1 9.40847 5.39094 12.8982
483 1 8.92816 5.24518 2.34394
484 1 9.44175 4.67637 0.779704
485 1 10.0826 4.77168 1.49517
486 1 10.5693 5.45286 12.944
487 1 10.125 5.27322 2.42643
488 1 10.6514 4.85598 0.652738
489 1 11.1936 4.94196 1.66881
490 1 11.9508 5.44481 0.024134
491 1 11.1751 5.48535 2.48764
492 1 11.6295 4.89426 0.753673
493 1 12.2289 4.89927 1.52168
494 1 12.9732 5.38961 0.0545031
495 1 12.3036 5.36563 2.42844
496 1 12.9199 4.71707 0.903785
497 1 8.98955 5.79346 1.56158
498 1 9.5285 6.49612 0.0682113
499 1 9.69688 6.42603 3.30079
500 1 9.53638 5.84226 0.743041
501 1 10.0752 5.80135 1.66033
502 1 10.5917 6.54695 0.0293236
503 1 10.2664 6.37314 2.4009
504 1 10.5983 5.95279 0.840868
505 1 11.3001 6.02645 1.56458
506 1 11.6586 6.68624 12.8799
507 1 11.316 6.64036 2.38764
508 1 11.7237 6.07419 0.624487
509 1 12.2377 5.89538 1.64459
510 1 12.9666 6.57676 12.8964
511 1 12.4307 6.39558 2.47486
512 1 12.8256 5.90725 0.739392
513 1 9.11122 6.45661 2.30616
514 1 9.50949 7.45064 12.786
515 1 8.94125 7.44776 2.36794
516 1 9.54233 6.99618 0.857825
517 1 10.1861 7.00324 1.6203
518 1 10.5468 7.57163 12.9494
519 1 10.055 7.58337 2.47189
520 1 10.7353 7.16235 0.837443
521 1 11.2515 7.18812 1.66931
522 1 11.7606 7.76739 12.7809
523 1 11.2247 7.81322 2.4562
524 1 11.7498 7.14968 0.836891
525 1 12.3255 6.98949 1.71632
526 1 12.7588 7.56276 0.090934
527 1 12.3992 7.61132 2.42847
528 1 12.789 6.94603 0.859497
529 1 9.01684 8.00251 1.50605
530 1 9.48004 8.74422 12.8469
531 1 8.37225 8.38671 3.16428
532 1 9.55655 8.06859 0.590093
533 1 10.0615 8.11706 1.62818
534 1 10.6765 8.89827 12.88
535 1 10.1025 8.78729 2.34488
536 1 10.5907 8.3603 0.634463
537 1 10.9998 8.34824 1.61061
538 1 11.7711 8.79733 0.0654046
539 1 11.243 8.79814 2.50613
540 1 11.5832 8.22324 0.801461
541 1 12.2196 8.24627 1.60708
542 1 12.8204 8.58737 12.8909
543 1 12.36 8.68092 2.39607
544 1 12.8033 8.19416 0.867164
545 1 9.40583 5.27384 3.19593
546 1 9.46124 4.64354 3.94236
547 1 10.5756 5.42991 3.35522
548 1 10.5696 4.92228 4.05659
549 1 11.7138 5.46073 3.1777
550 1 11.7669 4.8732 4.0146
551 1 12.9256 5.3555 3.15722
552 1 12.7994 4.74083 3.93543
553 1 9.54218 7.15249 3.97419
554 1 9.48313 5.83548 4.0414
555 1 10.8069 6.68291 3.25234
556 1 10.656 6.18908 3.94107
557 1 11.8817 6.56783 3.30211
558 1 11.8026 5.99304 4.05438
559 1 12.9994 6.41063 3.2953
560 1 12.8194 5.77616 4.02117
561 1 9.54527 8.65007 3.22096
562 1 9.48907 7.48479 3.1599
563 1 10.6332 7.66209 3.14758
564 1 10.7493 7.24691 4.12095
565 1 11.8749 7.67162 3.16129
566 1 11.7195 7.16004 4.10186
567 1 12.9089 7.4612 3.31312
568 1 13.0111 6.87918 4.20327
569 1 8.9026 8.51467 2.46995
570 1 9.02879 8.01961 4.84928
571 1 10.5479 8.75784 3.25409
572 1 10.646 8.20772 4.01796
573 1 11.8502 8.81888 3.24867
574 1 11.7175 8.19292 3.93881
575 1 12.9703 8.67866 3.25352
576 1 12.8448 8.12911 3.983
577 1 13.3493 9.07553 1.46979
578 1 0.527633 9.57097 0.0157476
579 1 13.4194 9.48423 2.29591
580 1 0.62236 9.10717 0.868732
581 1 1.11186 8.91686 1.69053
582 1 1.65879 9.38249 0.0134648
583 1 1.02993 9.53842 2.51047
584 1 1.60647 8.76916 0.749258
585 1 2.19764 8.60364 1.5946
586 1 2.74501 9.21357 0.073714
587 1 2.11283 9.28672 2.37312
588 1 2.87713 8.63005 0.900056
589 1 3.48085 8.53749 1.74413
590 1 3.82895 9.12952 12.8422
591 1 3.14745 9.21974 2.26498
592 1 3.88215 8.6075 0.809488
593 1 13.335 10.2117 1.52457
594 1 0.455121 10.7445 12.7714
595 1 13.3504 10.6675 2.37712
596 1 0.478003 10.3013 0.704391
597 1 0.932635 10.016 1.49634
598 1 1.64871 10.513 0.145211
599 1 1.03869 10.5162 2.27095
600 1 1.67601 9.96092 0.882482
601 1 2.13345 9.86753 1.71529
602 1 2.77616 10.2607 0.172499
603 1 2.21169 10.4541 2.51928
604 1 2.73445 9.70639 0.999691
605 1 3.45908 9.74794 1.6075
606 1 3.8402 10.1343 12.8845
607 1 3.25169 10.2955 2.41073
608 1 3.93857 9.6377 0.781925
609 1 13.3607 11.3385 1.68907
610 1 0.508358 11.7974 12.8965
611 1 0.0772214 11.768 2.42972
612 1 0.503754 11.2671 0.730139
613 1 1.03183 11.1548 1.69785
614 1 1.68759 11.6555 12.9104
615 1 1.10137 11.765 2.40249
616 1 1.56348 11.1378 0.821253
617 1 2.18846 11.0437 1.66023
618 1 2.63282 11.4142 12.9312
619 1 2.13545 11.6427 2.33727
620 1 2.74851 10.8865 0.894654
621 1 3.35712 10.8997 1.59746
622 1 3.76352 11.3486 0.119408
623 1 3.38085 11.4177 2.49722
624 1 4.02574 10.6853 0.736732
625 1 13.3359 12.5159 1.68114
626 1 0.569789 12.8385 0.169148
627 1 0.154998 12.9576 2.49177
628 1 0.400694 12.3412 0.868705
629 1 1.09898 12.3872 1.67238
630 1 1.68301 12.7147 0.0239867
631 1 1.19722 12.9719 2.39388
632 1 1.61444 12.1206 0.878567
633 1 2.28632 12.2175 1.48808
634 1 2.73723 12.6148 12.8968
635 1 2.15265 12.7862 2.40824
636 1 2.81216 11.9109 0.760193
637 1 3.32707 12.0388 1.65375
638 1 3.86252 12.3856 0.0208499
639 1 3.26816 12.5672 2.52371
640 1 3.91362 11.9567 0.883047
641 1 0.545311 9.59245 3.2655
642 1 0.563046 8.99203 4.00376
643 1 1.75165 9.49103 3.27197
644 1 1.67347 8.90867 4.00493
645 1 2.90602 9.24712 3.17828
646 1 2.81198 8.78763 4.0282
647 1 3.94255 9.04763 3.15105
648 1 3.86355 8.50521 4.19571
649 1 0.508052 10.6831 3.1075
650 1 0.479779 10.2456 3.97019
651 1 1.59093 10.5598 3.22791
652 1 1.58753 10.013 4.13923
653 1 2.68195 10.2522 3.30716
654 1 2.77663 9.79123 4.06192
655 1 3.81202 10.1179 3.24962
656 1 3.94393 9.42629 4.08313
657 1 0.65888 11.7876 3.2204
658 1 0.534065 11.2702 4.02566
659 1 1.68032 11.6564 3.22216
660 1 1.63155 11.051 4.08633
661 1 2.69149 11.4069 3.1102
662 1 2.75768 10.9858 4.03244
663 1 3.83571 11.2734 3.4145
664 1 3.8104 10.6845 4.01476
665 1 0.614067 12.8757 3.31172
666 1 0.514793 12.2789 4.11099
667 1 1.7504 12.7572 3.29518
668 1 1.60829 12.13 4.1507
669 1 2.72173 12.4687 3.21324
670 1 2.75142 12.0445 4.08974
671 1 3.89701 12.4612 3.26687
672 1 3.90851 11.9538 4.01406
673 1 4.53448 8.54634 1.57231
674 1 5.13073 9.06315 12.8716
675 1 4.28984 8.99039 2.39951
676 1 5.06144 8.56401 0.776527
677 1 5.62459 8.78192 1.58277
678 1 6.09749 10.5206 0.0790742
679 1 5.67728 9.20916 2.49149
680 1 6.17542 8.74878 0.852885
681 1 6.83773 8.76904 1.71597
682 1 7.1654 9.4115 0.0741787
683 1 6.66937 9.39584 2.44359
684 1 7.28243 8.90797 0.875181
685 1 8.40614 9.11159 0.782895
686 1 8.25705 9.63344 12.9182
687 1 7.84073 10.1838 1.67354
688 1 8.39645 8.55316 12.8711
689 1 4.47356 9.80415 1.83232
690 1 4.98602 10.2909 0.00874529
691 1 4.37193 10.3691 2.56204
692 1 4.85361 9.59037 0.678747
693 1 5.42332 9.80217 1.59881
694 1 5.54343 10.286 12.1795
695 1 5.50389 10.3016 2.53135
696 1 6.13658 9.44097 12.9259
697 1 6.05443 9.80423 0.896616
698 1 7.20421 10.5446 0.0800917
699 1 6.74317 10.4471 2.44614
700 1 6.60993 9.93756 1.6065
701 1 7.22225 9.99594 0.956082
702 1 8.46636 10.6428 12.8995
703 1 7.85103 10.7932 2.35308
704 1 8.28727 10.1715 0.814141
705 1 4.50072 10.8141 1.55837
706 1 4.90088 11.3297 12.8914
707 1 4.43834 11.4154 2.52815
708 1 5.04609 10.8636 0.853596
709 1 5.53167 10.9111 1.88001
710 1 6.08982 11.4421 12.8828
711 1 5.55657 11.5396 2.51337
712 1 5.99734 10.8282 0.958636
713 1 6.55652 11.0455 1.66857
714 1 7.22493 11.7542 12.8898
715 1 6.7281 11.5721 2.45804
716 1 7.1395 11.0557 0.776513
717 1 7.67537 11.2291 1.53721
718 1 8.27698 11.7749 0.194108
719 1 7.84856 11.7665 2.59996
720 1 8.35231 11.2033 0.860158
721 1 4.49363 11.9636 1.66111
722 1 5.00607 12.6162 12.8947
723 1 4.47246 12.4311 2.56012
724 1 5.03663 11.9113 0.735948
725 1 5.55676 11.9829 1.60772
726 1 6.16637 12.7605 0.183593
727 1 5.6099 12.4953 2.52958
728 1 6.01518 11.9418 0.784073
729 1 6.60336 12.133 1.67951
730 1 7.22872 12.7981 0.0071816
731 1 6.62746 12.7531 2.46875
732 1 7.147 12.1426 0.879768
733 1 7.8074 12.2502 1.625
734 1 8.44562 12.9275 12.914
735 1 7.83412 12.8459 2.39326
736 1 8.29684 12.4669 0.887428
737 1 5.00496 9.17874 3.13096
738 1 4.95291 8.53823 3.90122
739 1 6.0806 9.16162 3.49473
740 1 6.72617 8.79162 4.90105
741 1 7.76276 9.56206 2.51032
742 1 7.36273 8.90384 4.00092
743 1 8.38933 9.5865 3.26814
744 1 8.94057 9.24153 4.9628
745 1 4.97373 10.2295 3.25704
746 1 5.04397 9.74094 4.00767
747 1 6.21505 10.4223 3.13368
748 1 6.09502 9.89474 4.08059
749 1 7.4255 10.5501 3.19712
750 1 7.14638 9.95256 4.08187
751 1 8.46229 10.6365 3.28568
752 1 8.37158 10.2176 4.0993
753 1 4.98366 11.3898 3.27974
754 1 4.96188 10.7838 4.13745
755 1 6.18332 11.4007 3.26833
756 1 6.08365 10.8845 4.12068
757 1 7.33142 11.6854 3.37761
758 1 7.32931 11.0846 3.9816
759 1 8.55877 11.8629 3.22128
760 1 8.39076 11.325 4.05768
761 1 5.11865 12.5883 3.28104
762 1 4.93928 11.9535 4.07241
763 1 6.18382 12.5986 3.31452
764 1 6.10964 11.9397 4.10014
765 1 7.24979 12.8127 3.23784
766 1 7.31773 12.3271 4.06578
767 1 8.33792 12.9594 3.19395
768 1 8.45114 12.5266 3.9752
769 1 9.0854 9.11021 1.64031
770 1 9.39244 9.78384 0.0747492
771 1 8.81839 9.59395 2.39201
772 1 9.48248 9.14869 0.797135
773 1 10.1285 9.38826 1.63247
774 1 10.6048 9.87039 12.887
775 1 10.0206 9.88692 2.48441
776 1 10.4953 9.31408 0.856294
777 1 11.2435 9.34326 1.5161
778 1 11.6887 9.94771 12.821
779 1 11.2254 9.84215 2.42131
780 1 11.6477 9.43053 0.697479
781 1 12.2521 9.33418 1.58165
782 1 12.8573 9.86884 12.9198
783 1 12.2752 9.80909 2.51898
784 1 12.759 9.26173 0.727581
785 1 9.04591 10.1062 1.58702
786 1 9.59881 10.8563 12.9267
787 1 8.8638 10.6655 2.41098
788 1 9.40305 10.4761 0.732645
789 1 10.0461 10.4884 1.50623
790 1 10.6507 11.1165 0.194217
791 1 9.86193 10.8266 2.48055
792 1 10.6369 10.3731 0.818798
793 1 11.0883 10.4767 1.78424
794 1 11.707 11.1587 12.9293
795 1 11.0221 11.1011 2.49708
796 1 11.645 10.5034 0.766196
797 1 12.143 10.411 1.64844
798 1 12.8208 10.9578 12.8843
799 1 12.2302 10.9398 2.51498
800 1 12.7096 10.4038 0.803125
801 1 8.80076 11.3059 1.69478
802 1 9.23997 11.9815 12.91
803 1 8.97603 11.8762 2.37071
804 1 9.38811 11.5019 0.812594
805 1 10.0358 11.4222 1.63933
806 1 10.5975 12.2062 0.0679863
807 1 10.1079 11.9582 2.33461
808 1 10.583 11.5931 0.837922
809 1 11.2179 11.5305 1.63541
810 1 11.6715 12.2252 0.0869586
811 1 11.2373 12.1156 2.47785
812 1 11.6816 11.5582 0.817986
813 1 12.2669 11.4191 1.70121
814 1 12.7551 11.9862 12.9172
815 1 12.2814 12.0483 2.46224
816 1 12.9017 11.4678 0.825593
817 1 8.99822 12.4534 1.63437
818 1 9.5163 13.2438 12.9369
819 1 8.90914 13.0257 2.45192
820 1 9.48577 12.519 0.721695
821 1 9.90449 12.6743 1.59505
822 1 10.6496 0.00310932 0.0936623
823 1 10.2631 13.1015 2.36264
824 1 10.5958 12.711 0.867022
825 1 11.0546 12.6083 1.64735
826 1 11.6947 13.3263 12.9052
827 1 11.293 13.2807 2.36865
828 1 11.6887 12.8601 0.823764
829 1 12.1823 12.6866 1.60624
830 1 12.7703 13.0738 0.0262791
831 1 12.4033 13.32 2.27814
832 1 12.7555 12.4691 0.825958
833 1 9.50475 9.71648 3.21305
834 1 10.0376 9.19727 4.92409
835 1 10.7075 9.86092 3.2419
836 1 10.5979 9.38085 4.0207
837 1 11.7217 9.93738 3.25234
838 1 11.7156 9.21929 4.15372
839 1 12.87 9.94491 3.14392
840 1 12.8459 9.3672 3.82939
841 1 9.49832 11.0153 3.29789
842 1 9.59323 10.3398 4.04531
843 1 10.5986 11.0318 3.25368
844 1 10.6726 10.5152 4.09663
845 1 11.6984 11.0164 3.31856
846 1 11.713 10.3991 4.07883
847 1 12.9274 11.0165 3.20667
848 1 12.7825 10.4186 4.04703
849 1 9.63787 12.064 3.1921
850 1 9.4717 11.4865 4.18496
851 1 10.6529 12.1322 3.30288
852 1 10.7375 11.5785 3.99773
853 1 11.7497 12.1915 3.23687
854 1 11.854 11.5995 4.01205
855 1 12.9474 12.0817 3.18558
856 1 12.8684 11.5149 4.11275
857 1 9.64305 13.096 3.04474
858 1 9.50285 12.5378 4.03861
859 1 10.7439 13.179 3.34519
860 1 10.6744 12.6859 4.12301
861 1 11.7302 13.268 3.24393
862 1 11.8756 12.6679 4.05238
863 1 12.7379 13.0266 3.08594
864 1 12.9842 12.6108 4.05207
865 1 0.0577827 0.305248 4.98137
866 1 13.4032 0.594312 5.86068
867 1 1.00189 0.036117 4.85656
868 1 1.32963 0.546858 5.68234
869 1 2.17826 13.2943 4.76884
870 1 2.26301 0.387058 5.62876
871 1 3.2868 13.0282 4.90021
872 1 3.37997 0.265966 5.5591
873 1 13.4136 1.34611 4.92478
874 1 13.3907 1.82378 5.72498
875 1 1.14021 1.0695 4.83694
876 1 0.941056 1.55957 5.70302
877 1 2.36151 0.972931 4.90698
878 1 2.16219 1.54522 5.71525
879 1 3.40884 0.844207 4.78789
880 1 3.30659 1.34902 5.62523
881 1 13.4248 2.47406 4.8995
882 1 13.4318 2.96869 5.76408
883 1 1.06978 2.18734 4.8476
884 1 1.0579 2.76327 5.6507
885 1 2.03907 2.06467 4.90123
886 1 2.29905 2.70255 5.68725
887 1 3.25992 1.91836 4.78737
888 1 3.32651 2.4752 5.61031
889 1 0.0525077 3.55154 4.79859
890 1 13.3513 4.10844 5.62065
891 1 1.23526 3.27374 4.85934
892 1 1.0342 3.85873 5.57657
893 1 2.28145 3.22024 4.79268
894 1 2.08236 3.88595 5.59077
895 1 3.38343 3.17046 4.92659
896 1 3.38605 3.70719 5.56304
897 1 0.0110123 13.4354 8.10904
898 1 0.640621 0.634761 6.44741
899 1 0.609443 0.0159228 7.31658
900 1 1.18818 2.54993e-05 8.04905
901 1 1.72564 0.519511 6.54281
902 1 1.67977 13.2434 7.21897
903 1 2.27407 13.2821 8.13334
904 1 2.78773 0.346309 6.41597
905 1 2.9366 13.1671 7.30669
906 1 3.38164 12.9702 8.15448
907 1 3.9008 0.164513 6.43616
908 1 4.06494 13.1575 7.20401
909 1 0.0623051 1.31956 8.19557
910 1 0.58926 1.70682 6.58231
911 1 0.518366 1.06394 7.40137
912 1 1.18914 1.00866 8.11492
913 1 1.74303 1.79251 6.5017
914 1 1.64906 1.09441 7.1575
915 1 2.1516 0.790629 8.02086
916 1 2.83338 1.37037 6.40937
917 1 2.88842 0.845156 7.26405
918 1 3.37391 0.730323 8.10543
919 1 3.85534 1.28013 6.37753
920 1 3.97722 0.82728 7.25188
921 1 0.00821561 2.47337 8.00232
922 1 0.585434 2.76153 6.49811
923 1 0.650441 2.20845 7.3193
924 1 1.18695 2.22919 8.13054
925 1 1.67244 2.81912 6.30771
926 1 1.88266 2.15774 7.29896
927 1 2.33507 1.91162 8.13446
928 1 2.96277 2.56177 6.48481
929 1 2.88444 1.96149 7.16186
930 1 3.45805 1.97783 8.10085
931 1 3.99272 2.43759 6.4233
932 1 3.9366 1.92217 7.21928
933 1 0.0982147 3.61497 8.02084
934 1 0.485451 4.04388 6.43666
935 1 0.572067 3.40634 7.2024
936 1 1.12823 3.47816 8.04704
937 1 1.66 3.93936 6.52035
938 1 1.61159 3.20449 7.17716
939 1 2.16915 3.21797 8.06099
940 1 2.76048 3.67905 6.33467
941 1 2.72562 3.16648 7.30155
942 1 3.26467 3.06528 8.03804
943 1 3.79867 3.52063 6.53215
944 1 3.91933 3.00355 7.28577
945 1 4.37768 13.0596 4.95273
946 1 4.48571 0.258245 5.5932
947 1 5.4963 13.0937 4.80857
948 1 5.77645 0.188946 5.62329
949 1 6.8462 13.2786 4.86094
950 1 6.77043 0.36131 5.55089
951 1 8.01843 0.0913892 4.80207
952 1 7.75135 0.688027 5.60566
953 1 4.57728 0.909696 4.80032
954 1 4.45764 1.31424 5.67304
955 1 5.68827 0.838914 4.83771
956 1 5.59614 1.31955 5.67386
957 1 6.82762 1.12321 4.9235
958 1 6.8178 1.65238 5.64408
959 1 7.93855 1.19261 4.82983
960 1 7.84139 1.82151 5.64964
961 1 4.44401 1.96009 4.92422
962 1 4.59076 2.49884 5.71712
963 1 5.6188 1.84748 4.83955
964 1 5.67619 2.40152 5.69331
965 1 6.54945 2.16204 4.79006
966 1 6.81593 2.67828 5.71349
967 1 7.82968 2.31348 4.7349
968 1 7.78184 2.77123 5.7439
969 1 4.5363 3.08497 4.86541
970 1 4.45252 3.5446 5.83355
971 1 5.559 3.00657 4.92571
972 1 5.56163 3.49749 5.73219
973 1 6.64878 3.26363 4.89097
974 1 6.64894 3.77801 5.65841
975 1 7.75455 3.3603 4.84099
976 1 7.94976 3.95818 5.7588
977 1 4.57077 12.8936 7.96132
978 1 5.06114 0.165367 6.3231
979 1 5.1949 12.9979 7.25204
980 1 5.67546 13.1855 8.05824
981 1 6.18511 0.348457 6.58714
982 1 6.29755 13.158 7.15686
983 1 6.71102 13.2193 8.11089
984 1 7.23694 0.517387 6.39126
985 1 7.34613 0.0340035 7.28507
986 1 7.84032 13.4227 8.14731
987 1 8.36323 0.672738 6.33697
988 1 8.28884 0.170717 7.17064
989 1 4.42826 0.545356 8.02165
990 1 4.95308 1.33165 6.43168
991 1 5.04551 0.589659 7.0559