data.lammps (converted from cfg to data.lammps)
    
2298  atoms
1  atom types
0.0   13.4375  xlo xhi
0.0   13.4375  ylo yhi
0.0   12.952  zlo zhi
0.0  0.0 0.0 xy xz yz
    
    
    
Atoms
  
1 1 0.0924947 12.9291 1.63905
2 1 0.514131 0.149696 12.9312
3 1 13.3047 0.22114 2.3969
4 1 0.541342 13.09 0.701333
5 1 1.10648 13.0535 1.57178
6 1 1.63258 0.309909 12.8885
7 1 1.07216 0.162924 2.40091
8 1 1.72116 13.2134 0.753771
9 1 2.30403 13.3327 1.62893
10 1 2.89315 0.310288 12.944
11 1 2.36473 0.301314 2.37633
12 1 2.76778 13.2621 0.693823
13 1 3.40862 13.4292 1.57393
14 1 3.91551 0.641326 0.0682621
15 1 3.42229 0.597394 2.51464
16 1 3.8442 0.042409 0.795355
17 1 13.3447 0.612257 1.52363
18 1 0.443702 1.33104 0.0595964
19 1 13.3935 1.25892 2.25993
20 1 0.522114 0.74442 0.836998
21 1 1.03775 0.790632 1.65959
22 1 1.65687 1.3506 0.00697353
23 1 1.13814 1.28189 2.46964
24 1 1.63298 0.772906 0.824728
25 1 2.174 0.988997 1.62507
26 1 2.64642 1.52989 12.9031
27 1 2.26856 1.43507 2.33734
28 1 2.68509 1.01989 0.745276
29 1 3.35258 1.02567 1.49188
30 1 3.81165 1.62856 0.0141651
31 1 3.32957 1.56064 2.46784
32 1 3.91121 1.20626 0.799822
33 1 13.3023 1.86846 1.57669
34 1 0.252874 2.48033 0.0858584
35 1 0.0656662 2.55196 2.50401
36 1 0.529162 1.86787 0.83647
37 1 1.05469 1.85994 1.66695
38 1 1.43643 2.29425 12.9224
39 1 0.944366 2.53884 2.32289
40 1 1.68614 1.93794 0.899945
41 1 2.09781 2.16681 1.67757
42 1 2.64017 2.64125 12.8035
43 1 2.16363 2.67127 2.4128
44 1 2.75192 2.13271 0.736351
45 1 3.27167 2.13318 1.54905
46 1 3.84671 2.90051 12.879
47 1 3.33368 2.64881 2.33509
48 1 3.83526 2.28337 0.674543
49 1 13.3764 2.97458 1.47148
50 1 0.505313 3.56602 12.8943
51 1 0.0242763 3.50462 2.50231
52 1 0.614497 3.01453 0.794794
53 1 1.10595 3.06891 1.58913
54 1 1.63413 3.5609 12.8787
55 1 1.1959 3.66885 2.38511
56 1 1.61738 2.94503 0.647451
57 1 2.21754 3.24413 1.52455
58 1 2.69231 3.77771 0.0991854
59 1 2.25991 3.73924 2.40328
60 1 2.7944 3.18478 0.781664
61 1 3.29919 3.30868 1.62695
62 1 3.72262 3.94776 0.0224399
63 1 3.31065 3.73873 2.495
64 1 3.88242 3.31667 0.797196
65 1 0.398449 0.18911 3.27423
66 1 0.535179 13.0444 3.99292
67 1 1.66645 0.33433 3.0865
68 1 1.55505 13.2989 3.92026
69 1 2.8144 0.43588 3.28534
70 1 2.79712 13.2933 4.08256
71 1 3.88286 0.6677 3.37371
72 1 3.91561 0.048466 4.02961
73 1 0.423891 1.27587 3.04403
74 1 0.57855 0.82452 3.88661
75 1 1.6936 1.44308 3.18582
76 1 1.63073 0.896727 4.00709
77 1 2.73317 1.52688 3.32567
78 1 2.6558 0.973398 4.05505
79 1 3.85838 1.75874 3.18008
80 1 3.86651 1.2556 4.07839
81 1 0.554406 2.36036 3.2495
82 1 0.591368 1.835 3.96908
83 1 1.61701 2.5409 3.18667
84 1 1.59056 1.9845 3.98141
85 1 2.73028 2.65169 3.09791
86 1 2.80089 2.20406 3.95185
87 1 3.83629 2.807 3.22764
88 1 3.87086 2.34921 4.16863
89 1 0.625219 3.58124 3.42095
90 1 0.492611 2.9713 3.99124
91 1 1.58632 3.70227 3.21124
92 1 1.69939 3.1282 4.03996
93 1 2.70176 3.74499 3.35696
94 1 2.79332 3.21082 4.03895
95 1 3.75827 3.92563 3.34703
96 1 3.95549 3.32524 4.01669
97 1 4.49386 0.129818 1.62032
98 1 5.00898 0.846561 0.0135329
99 1 4.42861 0.665594 2.46413
100 1 4.9545 0.188323 0.695202
101 1 5.51888 0.255233 1.6782
102 1 6.19251 0.886758 0.00978384
103 1 5.53395 0.903716 2.51796
104 1 6.10513 0.352498 0.786449
105 1 6.63571 0.462879 1.59475
106 1 7.22983 0.981454 0.0127787
107 1 6.65264 0.912836 2.40898
108 1 7.16932 0.432056 0.931519
109 1 7.82308 0.28525 1.5775
110 1 8.30779 0.87671 0.0781407
111 1 7.78956 0.885207 2.38432
112 1 8.4205 0.370929 0.761022
113 1 4.41594 1.18917 1.58162
114 1 5.10409 2.03149 12.7727
115 1 4.42345 1.76289 2.29605
116 1 4.98969 1.3916 0.85334
117 1 5.66254 1.32989 1.67651
118 1 6.14943 2.00705 0.131316
119 1 5.42538 1.97275 2.30297
120 1 5.99839 1.44488 0.759128
121 1 6.53298 1.66405 1.55462
122 1 7.17466 2.03292 0.0429895
123 1 6.6698 2.1073 2.57494
124 1 7.27102 1.47521 0.882122
125 1 7.83506 1.41079 1.61145
126 1 8.23857 1.8933 12.8411
127 1 7.68446 1.97045 2.40918
128 1 8.46052 1.49863 0.884763
129 1 4.38976 2.40882 1.7441
130 1 5.05841 2.95522 0.0560967
131 1 4.47666 3.0299 2.60149
132 1 4.87691 2.26379 0.837848
133 1 5.47688 2.51483 1.55324
134 1 6.05973 3.24192 0.0372797
135 1 5.52008 3.02463 2.48111
136 1 6.12256 2.6552 0.86053
137 1 6.67345 2.70737 1.68652
138 1 7.11968 3.20709 12.924
139 1 6.57283 3.15662 2.48163
140 1 7.21047 2.55827 0.834786
141 1 7.69907 2.58892 1.76125
142 1 8.3081 2.98073 12.9032
143 1 7.7079 3.24295 2.44828
144 1 8.26795 2.43622 0.773611
145 1 4.39358 3.36257 1.63023
146 1 4.96655 4.06025 12.9256
147 1 4.34098 4.09773 2.5277
148 1 5.01063 3.44372 0.776572
149 1 5.40407 3.59844 1.60891
150 1 6.20405 4.30435 12.8667
151 1 5.6302 4.10907 2.56491
152 1 6.14741 3.74822 0.922255
153 1 7.20218 3.65198 0.782044
154 1 7.34237 4.25763 0.0246308
155 1 6.53359 3.71164 1.70238
156 1 7.73448 3.78815 1.62838
157 1 7.76627 4.37975 2.5651
158 1 8.48112 4.17842 0.00246977
159 1 8.27363 4.15037 3.33802
160 1 8.31081 3.59394 0.745012
161 1 5.00392 0.787945 3.25111
162 1 5.0108 0.211418 4.13002
163 1 6.14689 0.91662 3.29406
164 1 6.21892 0.222139 4.16244
165 1 7.16076 0.864461 3.29553
166 1 7.30754 0.400041 4.08599
167 1 8.2553 0.93036 3.16092
168 1 8.45966 0.398457 3.95923
169 1 4.91982 1.94411 3.20198
170 1 5.0194 1.46517 3.95862
171 1 6.04679 2.00813 3.16393
172 1 6.08035 1.48517 4.03259
173 1 7.2244 2.04312 3.35794
174 1 7.1572 1.48522 4.15788
175 1 8.23113 2.0204 3.28842
176 1 8.29364 1.45992 4.10516
177 1 5.17918 2.92426 3.32458
178 1 4.82606 2.42356 4.16968
179 1 6.23831 3.31694 3.45562
180 1 6.15956 2.50123 3.96506
181 1 7.26609 3.11966 3.19495
182 1 7.16122 2.58466 4.18989
183 1 8.29711 3.03085 3.32736
184 1 8.43815 2.4768 4.18333
185 1 4.91987 3.62634 3.93238
186 1 4.30395 3.64541 4.84784
187 1 6.80621 4.29426 2.40798
188 1 6.08465 3.77983 4.20843
189 1 7.12275 4.23142 3.34101
190 1 7.22255 3.7405 4.07637
191 1 8.44359 4.79011 4.10317
192 1 7.8351 3.80484 4.98923
193 1 8.94679 0.171109 1.55785
194 1 9.43976 0.626337 12.9415
195 1 8.86686 0.808076 2.34217
196 1 9.53798 0.123774 0.845779
197 1 10.0407 0.00685515 1.73123
198 1 10.5274 0.523095 12.9242
199 1 9.98006 0.708831 2.41858
200 1 10.6488 13.3912 0.813237
201 1 11.0573 13.4188 1.66207
202 1 11.8259 0.318883 12.8858
203 1 11.2293 0.489191 2.40108
204 1 11.7247 13.1959 0.895654
205 1 12.3648 13.0909 1.65291
206 1 12.9098 0.160483 0.0474205
207 1 12.2579 0.23042 2.49535
208 1 12.7829 13.0461 0.739325
209 1 8.922 1.36678 1.70382
210 1 9.39858 1.85865 0.0538201
211 1 8.81284 1.96505 2.41578
212 1 9.49562 1.2744 0.805412
213 1 10.0613 1.12631 1.68161
214 1 10.5661 1.67732 0.00232817
215 1 10.0877 1.76042 2.45843
216 1 10.5605 1.08725 0.822883
217 1 11.2393 1.00409 1.59132
218 1 11.6745 1.37888 0.13221
219 1 11.0865 1.63908 2.48494
220 1 11.6862 0.854152 0.81122
221 1 12.188 0.720112 1.61782
222 1 12.8921 1.40412 0.0100597
223 1 12.1519 1.27243 2.4697
224 1 12.8106 0.788099 0.775997
225 1 8.83693 2.50967 1.6692
226 1 9.50152 3.0183 0.0155969
227 1 8.83779 3.05109 2.47593
228 1 9.395 2.36515 0.809279
229 1 9.97507 2.20993 1.53234
230 1 10.5661 2.80408 0.0165915
231 1 9.99206 2.778 2.38157
232 1 10.6117 2.25356 0.858655
233 1 11.2509 2.0937 1.62795
234 1 11.6323 2.61479 12.8024
235 1 11.0778 2.64716 2.42389
236 1 11.6308 2.16629 0.672113
237 1 12.2206 1.83433 1.63163
238 1 12.7172 2.43301 12.8521
239 1 12.3017 2.49615 2.37795
240 1 12.7636 1.92125 0.842965
241 1 8.80102 3.51756 1.56088
242 1 9.51407 4.06084 12.9461
243 1 8.86024 4.07316 2.4081
244 1 9.43351 3.55275 0.76773
245 1 9.96469 3.34427 1.72547
246 1 10.6466 3.77619 12.8871
247 1 10.0231 4.00049 2.47539
248 1 10.5221 3.35151 0.861818
249 1 11.0731 3.25102 1.63592
250 1 11.7322 3.62662 0.109491
251 1 11.2219 3.74369 2.39738
252 1 11.7313 3.1636 0.879631
253 1 12.2749 3.05504 1.67418
254 1 12.8852 3.53653 12.9518
255 1 12.3457 3.68385 2.45589
256 1 12.7128 2.91928 0.836404
257 1 9.451 0.731809 3.18588
258 1 9.49934 0.155059 3.98708
259 1 10.6707 0.491325 3.27022
260 1 10.5155 0.00896275 4.19681
261 1 11.7075 0.433299 3.30648
262 1 11.6723 13.3582 4.07932
263 1 12.7974 0.320776 3.27847
264 1 12.8886 13.1036 3.98799
265 1 9.41832 1.79297 3.20978
266 1 9.4819 1.28735 4.1009
267 1 10.5305 1.486 3.39712
268 1 10.6027 1.05926 4.16038
269 1 11.6949 1.63585 3.29127
270 1 11.7133 0.966008 4.12713
271 1 12.7632 1.40871 3.13508
272 1 12.8449 0.951143 4.06961
273 1 9.51024 2.99229 3.29851
274 1 9.49428 2.25814 4.03284
275 1 10.5213 2.81801 3.25383
276 1 10.6275 2.25432 3.90022
277 1 11.6748 2.59576 3.16521
278 1 11.6969 2.18527 4.09441
279 1 12.8658 2.37762 3.17683
280 1 12.7991 1.90345 4.07241
281 1 9.47232 4.04697 3.21662
282 1 9.46838 3.42402 4.02038
283 1 10.6451 3.94727 3.21089
284 1 10.7032 3.40767 4.05359
285 1 11.7203 3.68568 3.19534
286 1 11.7801 3.16426 4.0959
287 1 12.8815 3.60517 3.31188
288 1 12.7855 2.91351 3.90824
289 1 13.4026 3.95545 1.6214
290 1 0.392555 4.72617 0.0654664
291 1 0.0326304 4.57658 2.49974
292 1 0.52091 4.11017 0.810826
293 1 0.949499 4.13118 1.69215
294 1 1.71567 4.82817 0.0787219
295 1 1.17999 4.75376 2.50036
296 1 1.56282 4.17676 0.821693
297 1 2.16872 4.23757 1.58918
298 1 2.78961 4.87332 0.044264
299 1 2.29397 4.74307 2.49522
300 1 2.77183 4.3338 0.829499
301 1 3.42969 4.43562 1.51778
302 1 3.95983 5.15183 0.0400525
303 1 3.33089 4.79566 2.49988
304 1 4.03542 4.44857 0.714353
305 1 0.0267382 5.16884 1.63439
306 1 0.524114 5.78804 12.8989
307 1 13.4163 5.74465 2.45319
308 1 0.540889 5.26598 0.879248
309 1 1.14555 5.22372 1.63594
310 1 1.65342 5.88947 0.106626
311 1 1.12209 5.84301 2.44389
312 1 1.61691 5.30006 0.85074
313 1 2.26117 5.32461 1.59549
314 1 2.70817 6.03584 0.120063
315 1 2.28362 5.87329 2.43354
316 1 2.88592 5.47516 0.897987
317 1 3.33577 5.49596 1.77194
318 1 3.88195 6.1954 12.9465
319 1 3.38847 6.16793 2.54578
320 1 3.85566 5.69538 0.907753
321 1 13.3084 6.3332 1.71694
322 1 0.544684 6.81004 12.9363
323 1 0.0867448 6.92926 2.4006
324 1 0.466438 6.40932 0.896683
325 1 1.09771 6.39203 1.69834
326 1 1.60558 6.96069 0.0720201
327 1 1.134 6.98374 2.47409
328 1 1.62184 6.43064 0.88947
329 1 2.16209 6.42812 1.67794
330 1 2.80412 7.10305 12.9143
331 1 2.31638 7.10958 2.36264
332 1 2.764 6.63201 1.01362
333 1 3.53046 6.63536 1.58332
334 1 3.85766 7.39065 0.0698525
335 1 3.33093 7.16006 2.46997
336 1 4.01826 6.77004 0.673873
337 1 0.0103096 7.48629 1.50511
338 1 0.552922 8.06031 12.9123
339 1 13.3732 7.95878 2.33771
340 1 0.644229 7.56905 0.767916
341 1 1.1054 7.51954 1.69503
342 1 1.74231 8.03583 12.9365
343 1 1.12558 8.05489 2.49841
344 1 1.81541 7.56003 0.823188
345 1 2.19434 7.71005 1.75
346 1 2.89308 8.14139 0.0897261
347 1 2.32936 8.25077 2.4847
348 1 2.92317 7.64062 0.964857
349 1 3.36654 7.80356 1.73318
350 1 4.01517 8.32347 12.9288
351 1 2.73549 9.32427 3.24919
352 1 4.06967 8.00961 0.921887
353 1 0.558245 4.83806 3.2929
354 1 0.635482 4.26557 4.07507
355 1 1.65821 4.84985 3.30275
356 1 1.80295 4.24192 4.16277
357 1 2.80864 4.86736 3.24984
358 1 2.8226 4.43267 4.06839
359 1 3.87705 5.1484 3.37098
360 1 3.8766 4.56743 4.04977
361 1 0.585934 5.80753 3.26651
362 1 0.505426 5.24905 4.21484
363 1 1.79419 5.89388 3.22545
364 1 1.5627 5.41568 4.00827
365 1 2.84872 6.07466 3.24194
366 1 2.69873 5.53034 4.06118
367 1 4.01955 6.22285 3.20252
368 1 3.90151 5.80986 4.17552
369 1 0.756545 6.89129 3.34568
370 1 0.510391 6.35529 4.15191
371 1 1.80861 6.98719 3.31841
372 1 1.79091 6.47374 4.17455
373 1 2.83164 7.30311 3.3035
374 1 2.7842 6.56863 3.99906
375 1 5.1709 7.57876 3.1518
376 1 3.46589 6.7419 4.98126
377 1 0.614486 8.06892 3.25477
378 1 0.589189 7.48192 4.02165
379 1 1.77642 8.11898 3.23312
380 1 1.74143 7.64244 4.07743
381 1 4.11667 8.44251 3.21945
382 1 2.93135 7.82186 4.24925
383 1 4.09572 7.29257 3.14721
384 1 4.06257 7.83761 4.08011
385 1 4.52778 4.50952 1.73738
386 1 4.96108 5.20053 12.8186
387 1 4.4017 5.16927 2.4877
388 1 5.05129 4.69477 0.824993
389 1 5.56146 5.30238 2.43867
390 1 6.05178 4.74123 0.818822
391 1 6.19293 5.40123 3.24766
392 1 5.61929 4.72463 1.78923
393 1 6.64154 4.92346 1.61162
394 1 6.68895 5.5004 12.1165
395 1 6.72082 5.47096 2.5049
396 1 7.2581 4.67387 0.904913
397 1 7.91426 4.87334 1.49023
398 1 8.3103 5.34258 12.9339
399 1 7.75971 5.31835 2.45592
400 1 8.44712 4.78453 0.742643
401 1 4.49952 5.66956 1.60725
402 1 5.09871 6.26546 12.9455
403 1 4.56183 6.22116 2.36338
404 1 5.04639 5.72577 0.885422
405 1 5.61596 5.87197 1.70183
406 1 6.13916 6.49331 12.9275
407 1 5.55059 6.47452 2.38945
408 1 6.17395 5.85066 0.781537
409 1 6.78301 6.05732 1.56903
410 1 7.31132 5.9761 0.774338
411 1 6.6501 6.51278 2.39146
412 1 7.2806 5.27622 0.136866
413 1 7.83244 5.86795 1.63911
414 1 8.56889 6.47607 12.8348
415 1 7.8301 6.49944 2.33698
416 1 8.38394 5.87615 0.777173
417 1 4.4561 6.8739 1.57332
418 1 5.00009 7.34272 12.8745
419 1 4.5211 7.43049 2.36833
420 1 5.13037 6.83239 0.737078
421 1 5.55572 6.90534 1.47675
422 1 6.21586 7.52183 12.8308
423 1 5.77063 7.54719 2.5607
424 1 6.21204 7.02836 0.737466
425 1 6.70893 7.10696 1.53324
426 1 7.29895 7.68527 0.0269079
427 1 6.6601 7.68878 2.33683
428 1 7.31126 7.14428 0.764638
429 1 7.83543 7.10731 1.53378
430 1 8.41693 6.99146 0.728796
431 1 7.79478 7.61375 2.36989
432 1 8.99604 6.90467 1.54083
433 1 4.61565 7.91211 1.59611
434 1 5.1256 8.57377 12.7955
435 1 4.56663 8.59235 2.25568
436 1 5.16618 8.03295 0.589409
437 1 5.58979 8.02805 1.527
438 1 6.28906 8.81646 12.8315
439 1 5.62355 8.66098 2.44548
440 1 6.19848 8.12809 0.656086
441 1 6.67662 8.24158 1.57007
442 1 7.40095 8.71869 12.9282
443 1 6.86113 8.71822 2.36167
444 1 7.19456 8.32823 0.845587
445 1 7.88787 8.23027 1.5688
446 1 8.4656 8.19404 0.907977
447 1 7.9633 9.3131 1.5192
448 1 8.37375 7.7286 12.9464
449 1 4.97921 5.2675 3.3569
450 1 4.9479 4.23155 3.29612
451 1 6.08653 6.01043 3.8798
452 1 6.07262 4.43321 3.34502
453 1 7.38341 5.55751 3.38466
454 1 7.25931 4.9084 3.95212
455 1 8.43945 5.33045 3.15974
456 1 8.36507 3.52416 4.07022
457 1 4.97626 5.86711 3.96643
458 1 4.46833 5.19953 5.74522
459 1 6.07172 6.66394 3.29719
460 1 6.31181 7.36504 3.76307
461 1 7.29422 6.56679 3.12072
462 1 7.89245 5.90202 4.79312
463 1 8.46061 6.41416 3.10106
464 1 7.89721 5.42739 5.56765
465 1 5.08198 8.0693 4.12976
466 1 4.99949 6.40946 3.15948
467 1 6.25251 8.28418 4.00703
468 1 5.13272 7.03221 4.01092
469 1 7.38732 8.24106 4.03799
470 1 7.17476 7.63516 3.12549
471 1 8.4169 7.60106 3.11369
472 1 8.35924 6.99744 3.8942
473 1 5.08896 8.60189 3.30667
474 1 4.36353 8.15308 4.9294
475 1 5.56822 8.13771 4.84905
476 1 6.78712 8.21284 4.73693
477 1 7.29017 8.69265 3.16789
478 1 6.70499 9.22127 4.88533
479 1 7.94975 8.76281 2.47763
480 1 8.41472 8.08065 4.02364
481 1 8.94143 4.59239 1.66739
482 1 9.60687 5.10363 12.8321
483 1 9.05053 5.20495 2.38331
484 1 9.53108 4.64787 0.842502
485 1 10.0515 4.47438 1.71975
486 1 10.6461 4.90141 12.9474
487 1 10.2048 5.17107 2.34464
488 1 10.5279 4.3709 0.82439
489 1 11.1246 4.34651 1.65655
490 1 11.7632 4.92401 12.9322
491 1 11.2765 4.88884 2.45598
492 1 11.6382 4.27794 0.778221
493 1 12.2076 4.19861 1.53423
494 1 12.7466 4.66397 0.00342767
495 1 12.4156 4.66164 2.32841
496 1 12.8641 4.16662 0.837487
497 1 8.9368 5.78421 1.62978
498 1 9.60517 6.11284 0.0333409
499 1 9.51625 6.32576 3.20537
500 1 9.37607 5.60741 0.789558
501 1 10.0726 5.6531 1.5559
502 1 10.5678 6.17969 0.00553445
503 1 10.0654 6.27391 2.48926
504 1 10.5661 5.52768 0.742761
505 1 11.1184 5.43203 1.64759
506 1 11.7593 5.9985 12.8437
507 1 11.3827 6.01821 2.40633
508 1 11.7092 5.41682 0.831805
509 1 12.2984 5.33074 1.59464
510 1 12.7617 5.83845 12.9184
511 1 12.4073 5.82881 2.32911
512 1 12.853 5.27278 0.759389
513 1 8.94571 6.34886 2.40725
514 1 9.48259 7.46579 12.8874
515 1 9.03012 7.4243 2.42095
516 1 9.53108 6.9056 0.636858
517 1 10.0861 6.68716 1.6284
518 1 10.7371 7.26507 12.9211
519 1 10.0948 7.43293 2.3571
520 1 10.5935 6.65764 0.819875
521 1 11.1402 6.56793 1.69356
522 1 11.7219 7.00919 12.9328
523 1 11.0946 7.20371 2.43513
524 1 11.6844 6.45887 0.810297
525 1 12.3736 6.51426 1.44941
526 1 12.8605 7.02119 0.014804
527 1 12.2486 6.96041 2.49323
528 1 12.8328 6.37644 0.683844
529 1 9.01351 7.96394 1.6481
530 1 9.73587 8.45248 12.9319
531 1 8.43171 8.7654 3.2204
532 1 9.5904 7.97706 0.833988
533 1 10.1868 7.85912 1.5261
534 1 10.6136 8.32563 0.149129
535 1 10.1043 8.48092 2.44926
536 1 10.8144 7.64494 0.886431
537 1 11.4368 7.56527 1.61432
538 1 11.7423 8.19591 12.9121
539 1 11.2482 8.34314 2.44509
540 1 11.8382 7.56518 0.655709
541 1 12.3666 7.65568 1.74615
542 1 12.7674 8.10233 12.8092
543 1 12.3287 8.37518 2.49711
544 1 12.8488 7.51006 0.776553
545 1 9.44565 5.13728 3.24562
546 1 9.57402 4.55073 3.98948
547 1 10.7392 5.00505 3.14204
548 1 10.6303 4.35668 4.12112
549 1 11.8258 4.82826 3.16056
550 1 11.8133 4.2942 3.88274
551 1 12.911 4.73769 3.28638
552 1 12.9961 4.22738 4.0647
553 1 9.46316 6.89224 4.05483
554 1 9.53645 5.70984 3.90665
555 1 10.8101 6.16108 3.16863
556 1 10.4927 5.45593 3.90448
557 1 11.8283 5.86005 3.29606
558 1 11.6355 5.36266 4.09787
559 1 12.8645 5.81936 3.22096
560 1 12.9652 5.35056 4.19952
561 1 9.50742 8.44142 3.25828
562 1 9.54143 7.45385 3.21707
563 1 10.629 7.21384 3.31228
564 1 10.5308 6.53831 4.02131
565 1 11.7392 7.07302 3.0731
566 1 11.8159 6.61137 3.93032
567 1 12.9765 6.98051 3.12268
568 1 12.8266 6.46712 4.04709
569 1 8.97909 8.55007 2.33661
570 1 8.9058 8.03458 4.84655
571 1 10.7071 8.3579 3.17193
572 1 10.6757 7.84054 4.03191
573 1 11.8424 8.15637 3.28246
574 1 11.784 7.6245 4.02556
575 1 12.9435 8.08833 3.32622
576 1 12.9099 7.43819 3.94519
577 1 0.077268 8.69604 1.69053
578 1 0.662035 9.16966 12.8891
579 1 13.401 9.18749 2.49002
580 1 0.658304 8.57239 0.877691
581 1 1.1889 8.57996 1.60781
582 1 1.73424 9.21208 0.0919595
583 1 1.13565 9.08396 2.4314
584 1 1.75902 8.62994 0.809597
585 1 2.27787 8.8324 1.57048
586 1 2.88826 9.24913 0.0561616
587 1 2.27492 9.36879 2.40446
588 1 2.87608 8.71211 0.798907
589 1 3.3879 8.9477 1.70334
590 1 3.95905 9.38075 0.0290848
591 1 3.51768 8.26193 2.49046
592 1 3.94717 9.00923 0.867868
593 1 0.00806233 9.74573 1.69798
594 1 0.622284 10.2244 0.00044106
595 1 0.110015 10.278 2.44764
596 1 0.613986 9.64822 0.907123
597 1 1.30177 9.77278 1.66179
598 1 1.67497 10.3352 12.9117
599 1 1.18758 10.3212 2.37783
600 1 1.65447 9.75982 0.791771
601 1 2.39593 9.86067 1.469
602 1 2.91008 10.456 12.9187
603 1 2.36345 10.3914 2.28956
604 1 2.81044 9.92038 0.742288
605 1 3.55806 10.0364 1.62544
606 1 4.06032 10.5987 12.9407
607 1 3.46436 10.5397 2.50143
608 1 4.00799 10.1132 0.79209
609 1 0.0812771 10.7805 1.4889
610 1 0.63403 11.398 12.8938
611 1 13.3934 11.2673 2.39903
612 1 0.658161 10.7755 0.777256
613 1 1.11733 10.8975 1.64657
614 1 1.69556 11.494 12.9163
615 1 1.0268 11.5309 2.3534
616 1 1.6979 10.8228 0.82858
617 1 2.20832 10.9914 1.60649
618 1 2.74214 11.5888 0.0111126
619 1 2.2655 11.5588 2.42935
620 1 2.80059 11.2045 0.823559
621 1 3.32163 11.0393 1.62245
622 1 3.90392 11.8056 12.927
623 1 3.54605 11.6806 2.3768
624 1 3.92677 11.2346 0.799707
625 1 0.0173716 11.9412 1.70498
626 1 0.543777 12.501 0.0148982
627 1 13.3629 12.4567 2.41446
628 1 0.342882 11.8982 0.80188
629 1 1.10326 11.8645 1.46593
630 1 1.61696 12.5202 12.8407
631 1 1.25684 12.4828 2.32499
632 1 1.59636 12.0638 0.73671
633 1 2.23843 12.1605 1.58363
634 1 2.74699 12.6678 12.882
635 1 2.2296 12.6363 2.38167
636 1 2.75093 12.2862 0.840248
637 1 3.27286 12.2674 1.6466
638 1 3.92516 12.8412 0.11885
639 1 3.35446 12.8164 2.38863
640 1 3.85491 12.2362 0.816288
641 1 0.583376 9.19255 3.29408
642 1 0.669139 8.62522 4.03342
643 1 1.67601 9.39273 3.23387
644 1 1.81682 8.76687 3.96638
645 1 2.9897 8.21581 3.33882
646 1 2.82904 8.8638 4.17267
647 1 3.3644 9.4034 2.41895
648 1 3.96369 9.50479 3.19716
649 1 0.676393 10.259 3.21352
650 1 0.512298 9.73118 4.24029
651 1 1.87941 10.4215 3.14402
652 1 1.66909 9.93538 4.02239
653 1 2.88968 10.5814 3.31436
654 1 2.86408 9.94888 4.05122
655 1 3.97538 10.6238 3.33684
656 1 4.0656 10.1886 4.08171
657 1 0.632582 11.3729 3.24795
658 1 0.681386 10.7109 3.95624
659 1 1.66456 11.3796 3.10551
660 1 1.77018 10.9094 4.02022
661 1 2.90663 11.7188 3.11193
662 1 2.83127 11.2122 3.96611
663 1 4.0382 11.7829 3.27908
664 1 3.93094 11.2461 4.06342
665 1 0.62929 12.5579 3.05487
666 1 0.532313 11.9877 3.93856
667 1 1.75066 12.5633 3.3379
668 1 1.79646 11.8868 3.93045
669 1 2.77789 12.784 3.21421
670 1 2.78092 12.1696 4.00633
671 1 3.77101 12.8582 3.3258
672 1 3.86788 12.4146 4.09515
673 1 4.55766 9.147 1.58387
674 1 5.04938 9.68157 0.0105431
675 1 4.60203 9.70407 2.55264
676 1 5.08517 9.11476 0.724386
677 1 5.66649 9.1268 1.53955
678 1 6.14787 10.9359 0.0212542
679 1 5.73694 9.87369 2.45194
680 1 6.2063 9.3104 0.657857
681 1 6.75682 9.27639 1.58652
682 1 7.32989 9.81404 12.8713
683 1 6.85476 9.79449 2.39365
684 1 7.34682 9.32775 0.775229
685 1 8.40771 9.22482 0.769423
686 1 8.35665 9.72546 12.922
687 1 7.8514 10.4458 1.5156
688 1 8.54399 8.6799 12.8945
689 1 4.59755 10.2356 1.70746
690 1 5.10753 10.8204 0.0499693
691 1 4.49561 10.872 2.46334
692 1 5.03756 10.315 0.812812
693 1 5.7117 10.2521 1.60422
694 1 5.53367 10.974 12.0808
695 1 5.67498 10.9395 2.52602
696 1 6.17366 9.93608 0.0233973
697 1 6.24703 10.4907 0.878725
698 1 7.3324 11.0217 12.8928
699 1 6.71965 10.9754 2.39169
700 1 6.75615 10.374 1.63252
701 1 7.29781 10.4537 0.649798
702 1 8.35565 10.9321 12.9135
703 1 7.97903 10.9517 2.32867
704 1 8.39082 10.4718 0.687332
705 1 4.47918 11.2409 1.56353
706 1 5.14688 11.99 12.8822
707 1 4.53606 12.0015 2.34821
708 1 5.08358 11.5442 0.7657
709 1 5.59915 11.4239 1.67728
710 1 6.26619 11.9792 12.9512
711 1 5.62761 12.0544 2.42644
712 1 6.15679 11.588 0.846354
713 1 6.71484 11.5587 1.62757
714 1 7.32289 12.1381 0.0498573
715 1 6.74153 12.0966 2.44092
716 1 7.21203 11.6626 0.843662
717 1 7.79933 11.5535 1.51174
718 1 8.45784 12.0729 12.9413
719 1 7.89421 12.0603 2.49683
720 1 8.47851 11.5662 0.73103
721 1 4.42505 12.5438 1.68544
722 1 5.01516 12.9557 0.0448423
723 1 4.38776 13.0588 2.61273
724 1 4.97694 12.4611 0.923879
725 1 5.79319 12.5882 1.51459
726 1 6.27948 13.2201 12.8785
727 1 5.6108 13.1053 2.37086
728 1 6.11268 12.7399 0.693628
729 1 6.82504 12.7425 1.72176
730 1 7.30363 13.2566 12.919
731 1 6.76127 13.2729 2.56179
732 1 7.30131 12.8327 0.805842
733 1 7.80424 12.6001 1.68665
734 1 8.41151 13.2275 12.9068
735 1 7.8555 13.2671 2.47729
736 1 8.40319 12.6808 0.850054
737 1 5.1322 9.74552 3.25078
738 1 4.97878 9.22083 4.13608
739 1 6.24067 9.75231 3.23088
740 1 6.1548 9.35435 4.06102
741 1 7.88874 9.93821 2.33569
742 1 7.42336 9.31611 4.09735
743 1 8.27827 9.83235 3.31982
744 1 9.09439 9.18635 4.85384
745 1 5.0453 10.9017 3.17935
746 1 5.20706 10.3569 4.01658
747 1 6.16671 11.0036 3.33318
748 1 6.30252 10.4734 4.05826
749 1 7.34397 10.8956 3.05562
750 1 7.37681 10.554 4.04399
751 1 8.44713 10.9551 3.21318
752 1 8.70534 10.3405 4.08785
753 1 4.97804 11.989 3.34987
754 1 5.19408 11.4411 4.12261
755 1 6.18099 12.0327 3.20013
756 1 6.24175 11.6413 4.13261
757 1 7.27174 12.1058 3.22149
758 1 7.23767 11.5468 3.92047
759 1 8.43637 12.0321 3.30496
760 1 8.37718 11.5047 4.00494
761 1 5.1079 13.1559 3.19379
762 1 5.07536 12.657 3.99086
763 1 6.15884 13.217 3.27393
764 1 6.22727 12.677 4.02498
765 1 7.35514 13.2253 3.30824
766 1 7.32111 12.689 4.06566
767 1 8.44849 13.1883 3.20698
768 1 8.42058 12.7601 4.00443
769 1 9.07618 9.18432 1.70368
770 1 9.62085 9.64159 0.0644322
771 1 8.94827 9.84806 2.53212
772 1 9.41528 8.98043 0.759863
773 1 10.0627 8.99454 1.63174
774 1 10.6368 9.39588 12.9031
775 1 10.1478 9.45807 2.41033
776 1 10.6714 8.94759 0.889481
777 1 11.2241 8.70629 1.65699
778 1 11.8874 9.2674 0.037424
779 1 11.2819 9.43849 2.3199
780 1 11.8291 8.71974 0.849336
781 1 12.454 8.6683 1.50586
782 1 13.043 9.17328 0.092819
783 1 12.3535 9.38087 2.50558
784 1 13.0449 8.54801 0.739058
785 1 9.0219 10.2409 1.54498
786 1 9.39989 10.8118 12.8539
787 1 9.04074 10.9062 2.50812
788 1 9.54867 10.228 0.685395
789 1 10.0741 10.1205 1.71227
790 1 10.7275 10.6304 12.9247
791 1 10.0596 10.6322 2.43201
792 1 10.6108 9.96299 0.771352
793 1 11.1784 9.94582 1.61439
794 1 11.9496 10.4353 12.8928
795 1 11.2282 10.5379 2.44057
796 1 11.7181 9.88323 0.777441
797 1 12.3041 9.7146 1.56232
798 1 13.0023 10.263 0.0469563
799 1 12.3245 10.4059 2.46045
800 1 12.8394 9.74703 0.831222
801 1 8.94868 11.37 1.67342
802 1 9.49162 11.8706 0.0178317
803 1 9.00678 11.9289 2.50027
804 1 9.62528 11.3209 0.911589
805 1 10.2385 11.1792 1.63308
806 1 10.5501 11.7778 0.0303415
807 1 10.0613 11.8027 2.4317
808 1 10.68 11.1212 0.731968
809 1 11.1643 11.0624 1.54458
810 1 11.7139 11.5853 0.0723418
811 1 11.2663 11.6073 2.49046
812 1 11.8146 10.9512 0.841017
813 1 12.3464 10.7557 1.59979
814 1 12.931 11.3795 12.8379
815 1 12.2732 11.5322 2.34587
816 1 12.928 10.9472 0.807362
817 1 8.86935 12.4057 1.69977
818 1 9.55891 12.9494 0.0592175
819 1 8.94749 13.0669 2.36866
820 1 9.37838 12.4417 0.859149
821 1 10.009 12.2716 1.63448
822 1 10.5507 12.8741 0.0496589
823 1 10.0697 12.8293 2.48811
824 1 10.5886 12.2942 0.909385
825 1 11.1608 12.144 1.55644
826 1 11.7621 12.7681 12.9452
827 1 11.088 12.7112 2.45527
828 1 11.6886 12.1637 0.830989
829 1 12.391 12.0196 1.66177
830 1 12.8396 12.4757 0.0479996
831 1 12.0815 12.6352 2.40248
832 1 12.7232 11.9447 0.822018
833 1 9.41601 9.59843 3.11481
834 1 10.1409 9.02563 4.86008
835 1 10.6644 9.50381 3.11248
836 1 10.7425 8.94956 3.94045
837 1 11.7188 9.43373 3.26266
838 1 11.8918 8.84584 3.90491
839 1 12.9511 9.09063 3.25378
840 1 12.9734 8.63033 4.15332
841 1 9.58861 10.7718 3.39359
842 1 9.68963 10.0389 3.91538
843 1 10.637 10.5097 3.17679
844 1 10.6585 10.0363 4.06381
845 1 11.7729 10.5252 3.26108
846 1 11.7609 10.0773 4.06732
847 1 12.8816 10.3585 3.24058
848 1 12.8074 9.76216 3.95068
849 1 9.52755 11.9115 3.31666
850 1 9.59448 11.3239 4.08555
851 1 10.7063 11.6752 3.20346
852 1 10.7825 11.176 4.04769
853 1 11.9319 11.7037 3.26403
854 1 11.9529 11.0687 4.01394
855 1 12.9954 11.3732 3.23107
856 1 12.9227 10.8976 4.21841
857 1 9.51071 13.0061 3.20658
858 1 9.64555 12.5189 4.06679
859 1 10.68 12.9221 3.29793
860 1 10.6474 12.2308 4.04949
861 1 11.6989 12.7276 3.25685
862 1 11.8117 12.2497 4.1139
863 1 12.8645 12.501 3.12457
864 1 12.895 12.0271 4.02087
865 1 0.0460314 13.2043 4.78607
866 1 13.3767 0.39091 5.80937
867 1 1.15539 13.1456 4.8706
868 1 1.15069 0.209382 5.59761
869 1 2.18969 13.3687 4.751
870 1 2.27196 0.472936 5.71275
871 1 3.3314 0.0879926 4.8331
872 1 3.30537 0.607102 5.59762
873 1 0.0466174 0.77867 4.79115
874 1 13.4258 1.44077 5.62253
875 1 1.04403 0.830292 4.82845
876 1 1.12538 1.38586 5.65541
877 1 2.08453 1.02309 4.90358
878 1 2.25981 1.56898 5.71327
879 1 3.24524 1.23983 4.7524
880 1 3.36406 1.67239 5.68584
881 1 13.3763 1.89774 4.85398
882 1 0.0295512 2.52093 5.60148
883 1 1.04478 2.02195 4.82374
884 1 1.11594 2.60212 5.61736
885 1 2.13754 2.06297 4.73001
886 1 2.13562 2.60587 5.75468
887 1 3.17802 2.25192 4.96005
888 1 3.3992 2.82403 5.62144
889 1 13.3193 2.99193 4.75682
890 1 0.00143237 3.45211 5.74859
891 1 1.0321 3.19823 4.78624
892 1 1.14462 3.64555 5.65781
893 1 2.10781 3.1203 4.96196
894 1 2.30522 3.8125 5.69595
895 1 3.20925 3.43358 4.81681
896 1 3.54712 3.81707 5.9352
897 1 0.174549 13.1168 8.17862
898 1 0.594996 0.232549 6.33037
899 1 0.49197 13.1422 7.20842
900 1 1.15821 13.2081 8.12707
901 1 1.6367 0.364645 6.52834
902 1 1.58525 13.1003 7.0989
903 1 2.12722 13.3368 7.93946
904 1 2.85398 0.328242 6.50145
905 1 2.69832 13.1838 7.2054
906 1 3.29598 13.3629 7.94406
907 1 3.93528 0.597068 6.37497
908 1 3.98625 0.10478 7.24786
909 1 0.127314 0.950757 8.16883
910 1 0.496022 1.37396 6.49922
911 1 0.563803 0.714999 7.35672
912 1 1.243 0.746407 8.09249
913 1 1.52065 1.50453 6.38443
914 1 1.66268 0.949246 7.20357
915 1 2.35328 0.834192 8.02218
916 1 2.72142 1.50689 6.51348
917 1 2.83268 1.02887 7.20103
918 1 3.47623 0.338012 8.70714
919 1 3.79718 2.42124 7.39759
920 1 3.87632 1.22085 7.2167
921 1 13.3808 1.93071 8.04138
922 1 0.523395 2.55376 6.47202
923 1 0.506537 1.86991 7.26374
924 1 1.18047 1.859 8.02667
925 1 1.57066 2.57067 6.58599
926 1 1.73313 1.94615 7.27691
927 1 2.31156 2.02234 8.05621
928 1 2.76311 2.67674 6.37481
929 1 2.73045 2.23374 7.19524
930 1 3.26009 1.69713 8.89299
931 1 3.85246 2.91915 6.55103
932 1 3.3393 2.08416 8.09014
933 1 13.345 3.10523 7.97527
934 1 0.530675 3.61224 6.59126
935 1 0.538967 2.9914 7.28601
936 1 1.07198 3.14581 8.03517
937 1 1.63991 3.71752 6.43669
938 1 1.72785 3.1164 7.38991
939 1 2.30949 3.13149 8.19595
940 1 2.76542 3.90646 6.43972
941 1 2.73356 3.27569 7.28411
942 1 3.31535 3.28582 8.12544
943 1 3.79953 3.54085 7.22306
944 1 3.84222 1.8011 6.5717
945 1 4.35697 0.180789 4.83542
946 1 4.53619 0.875491 5.56686
947 1 5.60965 0.48284 4.76394
948 1 5.68787 0.88874 5.61477
949 1 6.80983 0.431317 4.85409
950 1 6.72982 0.896835 5.72414
951 1 7.97755 0.318201 4.84757
952 1 7.71584 0.850981 5.63773
953 1 4.42831 1.4316 4.87837
954 1 4.40641 2.81904 5.26599
955 1 5.4755 1.53527 4.86135
956 1 5.48719 1.97478 5.66574
957 1 6.57837 1.50089 4.9049
958 1 6.6936 2.06842 5.74179
959 1 7.84065 1.45027 4.87916
960 1 7.77041 2.0787 5.63355
961 1 4.34893 2.00584 5.58853
962 1 4.3933 4.02511 5.74524
963 1 5.55228 2.79124 4.59932
964 1 5.42938 2.95821 5.57711
965 1 6.50344 2.66341 4.95527
966 1 6.51333 3.20612 5.66267
967 1 7.68269 2.64664 4.93558
968 1 7.73225 3.18891 5.76912
969 1 5.44279 3.85519 4.86096
970 1 3.78548 4.41457 7.16791
971 1 5.09429 4.87908 4.38452
972 1 5.50135 4.27581 5.58232
973 1 6.79362 3.81219 4.87026
974 1 6.58149 4.34735 5.60462
975 1 7.91953 4.43357 5.72699
976 1 8.26648 4.07734 6.61893
977 1 4.50465 0.0277922 8.11296
978 1 5.14826 0.803326 6.32332
979 1 5.02478 0.338669 7.19732
980 1 5.5345 0.289159 8.06483
981 1 6.18898 1.02169 6.58678
982 1 6.05745 0.237674 7.22952
983 1 6.73963 13.221 8.82931
984 1 7.23124 0.9592 6.53862
985 1 6.65602 0.383606 7.89325
986 1 7.78967 0.280395 8.08545
987 1 8.39114 0.820638 6.40598
988 1 8.45195 0.330052 7.35652
989 1 4.46783 1.24431 8.04757
990 1 4.82132 1.92485 6.46802
991 1 5.01416 1.34122 7.20581
992 1 5.57684 1.3491 7.9515