data.lammps (converted from cfg to data.lammps)
    
2298  atoms
1  atom types
0.0   13.4375  xlo xhi
0.0   13.4375  ylo yhi
0.0   12.952  zlo zhi
0.0  0.0 0.0 xy xz yz
    
    
    
Atoms
  
1 1 0.0388806 13.0736 1.68653
2 1 0.442415 0.256429 0.00876981
3 1 0.0547657 0.298259 2.35417
4 1 0.595839 13.1789 0.837366
5 1 1.16819 13.2167 1.50004
6 1 1.5935 0.404764 12.7934
7 1 1.16994 0.17605 2.42021
8 1 1.63228 13.3415 0.628672
9 1 2.19254 13.3376 1.49386
10 1 2.88955 0.461713 0.0142308
11 1 2.29084 0.510218 2.2853
12 1 2.8402 13.3223 0.774479
13 1 3.34562 0.172855 1.4697
14 1 3.94262 0.602996 0.0957534
15 1 3.39877 0.650808 2.37025
16 1 3.9985 0.0108192 0.795735
17 1 13.365 0.856337 1.59718
18 1 0.472136 1.34663 0.0229129
19 1 0.00604284 1.30057 2.47443
20 1 0.68779 0.822602 0.803966
21 1 1.10987 0.896295 1.62831
22 1 1.68896 1.55469 0.0249992
23 1 1.07359 1.29066 2.31696
24 1 1.76084 0.907465 0.753099
25 1 2.2225 1.07761 1.54627
26 1 2.83339 1.58885 0.0304928
27 1 2.28743 1.58763 2.49449
28 1 2.87317 1.00493 0.760302
29 1 3.27333 1.29284 1.59694
30 1 3.99158 1.82053 0.0339862
31 1 3.38426 1.72838 2.44079
32 1 3.99321 1.30049 0.817769
33 1 13.377 1.8653 1.55405
34 1 0.56314 2.4349 12.9431
35 1 13.4318 2.37477 2.31511
36 1 0.644969 1.93062 0.768235
37 1 1.15834 1.95498 1.76577
38 1 1.74372 2.6217 0.0804671
39 1 1.12636 2.56031 2.52146
40 1 1.67481 2.04266 0.879186
41 1 2.21527 2.23073 1.64462
42 1 2.85533 2.72762 0.00593488
43 1 2.23018 2.64892 2.42055
44 1 2.7631 2.19074 0.764307
45 1 3.40994 2.36817 1.70653
46 1 3.99182 2.96169 0.087242
47 1 3.48442 2.79222 2.57172
48 1 3.93517 2.32802 0.785028
49 1 0.0965573 3.13662 1.66159
50 1 0.48774 3.63041 0.0771464
51 1 13.4296 3.46846 2.42134
52 1 0.428541 2.98232 0.745035
53 1 1.05842 3.02256 1.65187
54 1 1.72648 3.78645 0.137163
55 1 1.10368 3.56227 2.64503
56 1 1.59619 3.17239 0.822913
57 1 2.21751 3.26916 1.73233
58 1 2.71373 3.84876 0.201129
59 1 2.18423 3.681 2.56688
60 1 2.76577 3.23578 0.818399
61 1 3.28266 3.41885 1.69079
62 1 3.80662 4.08528 12.845
63 1 3.33161 3.79738 2.52938
64 1 3.90209 3.49054 0.851173
65 1 0.585957 0.260341 3.20899
66 1 0.534747 13.0807 4.0213
67 1 1.76172 0.376816 3.25069
68 1 1.63856 13.2068 3.91571
69 1 2.86135 0.436365 3.04656
70 1 2.81302 13.3968 3.99696
71 1 3.91769 0.720727 3.22277
72 1 3.80309 0.188482 4.03838
73 1 0.557018 1.38561 3.2232
74 1 0.526759 0.756684 4.06605
75 1 1.65332 1.35767 3.20905
76 1 1.55643 0.909027 4.07739
77 1 2.7504 1.62846 3.41605
78 1 2.80016 1.0002 3.95197
79 1 3.85866 1.73889 3.31686
80 1 4.02067 1.2287 4.09247
81 1 0.489801 2.34499 3.30768
82 1 0.501424 1.89764 4.2488
83 1 1.65886 2.43013 3.3013
84 1 1.78162 2.00216 4.07149
85 1 2.80579 2.83473 3.24006
86 1 2.8632 2.20473 4.00626
87 1 4.0175 2.78851 3.34698
88 1 4.04576 2.3017 4.17323
89 1 0.503957 3.51098 3.23295
90 1 0.635998 3.05609 4.12607
91 1 1.7302 3.79918 3.3579
92 1 1.66383 3.12496 3.95009
93 1 2.81302 3.8276 3.37648
94 1 2.86397 3.19787 4.20402
95 1 3.95459 4.09429 3.31214
96 1 4.01033 3.35817 4.01937
97 1 4.42158 0.190036 1.7228
98 1 5.0156 0.923502 0.0759706
99 1 4.5111 0.843731 2.30068
100 1 5.08182 0.234971 0.801839
101 1 5.59748 0.330116 1.67793
102 1 6.24482 1.05979 0.0266678
103 1 5.66915 0.872432 2.52828
104 1 6.13302 0.434215 0.85783
105 1 6.7729 0.422683 1.54196
106 1 7.32716 1.05569 12.9309
107 1 6.85882 0.852517 2.464
108 1 7.28405 0.366003 0.613921
109 1 7.84324 0.230352 1.58812
110 1 8.32014 0.803915 12.7593
111 1 8.0611 0.807476 2.27378
112 1 8.48683 0.227663 0.756252
113 1 4.53302 1.31345 1.57448
114 1 5.1541 1.9612 12.9436
115 1 4.50046 1.90544 2.37567
116 1 5.1914 1.38891 0.873009
117 1 5.73515 1.42103 1.78906
118 1 6.18844 2.09809 12.7768
119 1 5.58389 2.11113 2.35721
120 1 6.23757 1.5425 0.791529
121 1 6.67442 1.46631 1.69939
122 1 7.35373 2.19116 12.9183
123 1 6.81668 2.10383 2.37796
124 1 7.23326 1.49832 0.943745
125 1 7.8446 1.41148 1.59396
126 1 8.43415 1.80517 0.109683
127 1 7.87429 2.01429 2.44097
128 1 8.48378 1.24542 0.792512
129 1 4.47981 2.54113 1.74079
130 1 5.12537 2.97235 12.8316
131 1 4.50881 3.11575 2.61686
132 1 4.96616 2.46609 0.867701
133 1 5.73198 2.59525 1.53106
134 1 6.18521 3.17797 12.9249
135 1 5.57346 3.1965 2.29279
136 1 6.26521 2.54783 0.787824
137 1 6.76295 2.76245 1.63001
138 1 7.34167 3.26214 0.113639
139 1 6.69447 3.27711 2.35767
140 1 7.30661 2.52276 0.823243
141 1 7.98984 2.4669 1.57987
142 1 8.48152 3.08412 12.8752
143 1 7.8789 3.07334 2.48932
144 1 8.38782 2.47744 0.670903
145 1 4.40894 3.49923 1.62676
146 1 4.97683 4.10896 0.0101687
147 1 4.35059 4.07413 2.34277
148 1 5.01329 3.44515 0.719586
149 1 5.48422 3.69385 1.58016
150 1 6.21177 4.36587 12.9072
151 1 5.531 4.32874 2.47616
152 1 6.12737 3.71372 0.802042
153 1 7.26373 3.76438 0.899295
154 1 7.28643 4.34383 12.9202
155 1 6.66629 3.89553 1.6046
156 1 7.90164 3.45442 1.56745
157 1 7.82603 4.17772 2.34453
158 1 8.29946 4.06478 12.805
159 1 8.38957 4.09333 3.25156
160 1 8.39564 3.54493 0.839371
161 1 5.00419 0.883189 3.22242
162 1 5.00535 0.401822 4.0367
163 1 6.21574 1.07629 3.2824
164 1 6.11641 0.447875 4.14999
165 1 7.32583 0.840345 3.15721
166 1 7.17657 0.465116 4.12807
167 1 8.43186 0.781479 3.26741
168 1 8.27686 0.160115 3.97018
169 1 5.00563 1.98965 3.22668
170 1 5.09176 1.59053 4.02907
171 1 6.17352 2.15998 3.10608
172 1 6.24477 1.53744 4.05473
173 1 7.30558 1.84588 3.15202
174 1 7.36431 1.44033 4.13218
175 1 8.35968 1.88512 3.38959
176 1 8.52553 1.25868 4.05819
177 1 5.19116 3.14653 3.40517
178 1 5.13331 2.54463 4.23622
179 1 6.1936 3.23517 3.2762
180 1 6.13297 2.59035 4.00223
181 1 7.28059 3.10155 3.18466
182 1 7.28674 2.48075 3.93383
183 1 8.4461 2.98268 3.22108
184 1 8.40694 2.53316 4.01708
185 1 5.04765 3.71587 4.16334
186 1 4.55147 3.4904 5.05571
187 1 6.83713 4.28379 2.48141
188 1 6.13214 3.84698 3.94774
189 1 7.38338 4.20876 3.3
190 1 7.22689 3.56076 4.08941
191 1 8.41314 4.77061 4.12829
192 1 7.92513 3.51092 4.81989
193 1 9.00123 0.0442607 1.60716
194 1 9.65807 0.593522 0.021825
195 1 9.02473 0.630574 2.30665
196 1 9.57117 13.3976 0.756429
197 1 10.1562 0.00754479 1.45087
198 1 10.7042 0.608687 0.0691176
199 1 10.1456 0.495329 2.48324
200 1 10.7194 13.2862 0.661174
201 1 11.1538 13.2495 1.56469
202 1 11.702 0.322843 12.9137
203 1 11.2313 0.264005 2.36193
204 1 11.8178 13.1786 0.750886
205 1 12.3312 13.1268 1.56017
206 1 12.7071 0.0930648 12.883
207 1 12.381 0.257421 2.38235
208 1 12.9504 13.0287 0.918647
209 1 8.98926 1.25446 1.60955
210 1 9.61578 1.7421 0.0177985
211 1 8.89327 1.82285 2.47888
212 1 9.5422 1.1496 0.757535
213 1 10.0383 1.05922 1.63322
214 1 10.7893 1.65215 12.9228
215 1 10.1068 1.62768 2.37035
216 1 10.6118 1.14742 0.888157
217 1 11.198 0.920157 1.50693
218 1 11.7402 1.31547 12.9195
219 1 11.2552 1.44499 2.41179
220 1 11.7728 0.824169 0.893812
221 1 12.3289 0.906202 1.76532
222 1 12.8371 1.36475 0.0582727
223 1 12.3357 1.49832 2.45573
224 1 12.8826 0.607461 0.813772
225 1 9.00639 2.33006 1.6029
226 1 9.52165 2.82306 12.8927
227 1 8.98642 2.92366 2.4225
228 1 9.56609 2.24291 0.888993
229 1 10.2095 2.2672 1.71306
230 1 10.524 2.57977 12.8435
231 1 10.0493 2.91165 2.35013
232 1 10.6408 2.21136 0.862015
233 1 11.2039 1.98528 1.75546
234 1 11.8416 2.45772 0.0255312
235 1 11.3526 2.69502 2.45319
236 1 11.6883 1.8775 0.84918
237 1 12.3511 2.03586 1.58403
238 1 12.8555 2.59153 12.745
239 1 12.4664 2.47883 2.54262
240 1 12.8356 2.004 0.677159
241 1 9.05714 3.37477 1.61644
242 1 9.63862 3.78596 12.8441
243 1 8.89307 4.06433 2.33122
244 1 9.40093 3.36889 0.802612
245 1 10.2627 3.49124 1.65468
246 1 10.7233 3.80434 0.15351
247 1 10.0279 4.01096 2.58478
248 1 10.5365 3.19502 0.80599
249 1 11.3226 3.19638 1.55561
250 1 11.8028 3.65887 12.8739
251 1 11.2294 3.71066 2.4519
252 1 11.6873 3.00467 0.759475
253 1 12.3016 2.93605 1.53236
254 1 12.8681 3.65784 12.8587
255 1 12.2911 3.56872 2.41122
256 1 12.845 3.046 0.701537
257 1 9.4167 0.498439 3.227
258 1 9.5496 0.0365593 4.10192
259 1 10.6746 0.492974 3.18759
260 1 10.635 13.3473 3.95941
261 1 11.7833 0.234548 3.11959
262 1 11.7003 13.2577 4.03477
263 1 12.8611 0.159165 3.22081
264 1 12.8198 13.0882 4.00313
265 1 9.41163 1.71566 3.19615
266 1 9.63954 1.12915 3.998
267 1 10.5936 1.62375 3.18121
268 1 10.6942 1.05016 3.99731
269 1 11.6818 1.26955 3.18039
270 1 11.7814 0.750775 4.09423
271 1 12.8445 1.2466 3.31372
272 1 12.8808 0.75279 4.08046
273 1 9.49702 2.77494 3.29539
274 1 9.51949 2.2967 4.14105
275 1 10.6131 2.57782 3.07316
276 1 10.7165 2.14426 4.07803
277 1 11.7728 2.45848 3.1595
278 1 11.7836 1.83122 4.03988
279 1 12.9893 2.53067 3.34611
280 1 12.8286 1.84462 3.95295
281 1 9.364 3.85035 3.17742
282 1 9.62976 3.38723 4.09695
283 1 10.6394 3.72075 3.22514
284 1 10.6698 3.10625 4.01794
285 1 11.7573 3.66687 3.28787
286 1 11.733 3.007 3.93683
287 1 12.8031 3.58675 3.28029
288 1 12.885 3.05913 4.13088
289 1 13.4282 4.2005 1.54099
290 1 0.379221 4.7343 0.0706423
291 1 0.0639221 4.52187 2.4938
292 1 0.603974 4.25305 0.880268
293 1 1.16604 4.10303 1.74922
294 1 1.60558 4.89241 0.00595778
295 1 1.04574 4.67566 2.45957
296 1 1.6002 4.34833 0.914275
297 1 2.32293 4.28211 1.69586
298 1 2.67277 5.01423 0.0413362
299 1 2.3251 4.86046 2.55732
300 1 2.72873 4.48991 0.809045
301 1 3.34751 4.47258 1.53411
302 1 3.7709 5.168 0.0901229
303 1 3.38096 4.9006 2.4264
304 1 3.92343 4.56285 0.823822
305 1 13.4066 5.21994 1.6892
306 1 0.468099 5.76948 12.9469
307 1 13.4047 5.61995 2.45288
308 1 0.573633 5.30265 0.89832
309 1 1.2494 5.28735 1.67899
310 1 1.61603 6.04055 0.0737686
311 1 1.19582 5.80644 2.39757
312 1 1.64118 5.44229 0.87404
313 1 2.2525 5.30314 1.63865
314 1 2.66382 6.07578 12.9093
315 1 2.27536 6.05064 2.41829
316 1 2.76843 5.6972 0.855884
317 1 3.38814 5.52534 1.64088
318 1 3.86226 6.36319 0.0284812
319 1 3.33372 6.09948 2.51209
320 1 3.89892 5.72733 0.850686
321 1 13.409 6.35791 1.65976
322 1 0.686604 6.8834 12.9469
323 1 13.3692 6.8599 2.36189
324 1 0.455473 6.27194 0.800526
325 1 0.901082 6.50813 1.60763
326 1 1.84051 7.02663 0.0732841
327 1 0.984184 6.97777 2.48829
328 1 1.58397 6.49946 0.959052
329 1 2.26841 6.59827 1.54368
330 1 2.88941 7.14801 12.8774
331 1 2.09483 7.09093 2.32161
332 1 2.8937 6.71832 0.979544
333 1 3.53404 6.68575 1.6785
334 1 3.79889 7.47958 0.0502821
335 1 3.20973 7.31368 2.36331
336 1 3.95832 6.93609 0.815906
337 1 13.3358 7.52887 1.71725
338 1 0.47004 8.00796 0.0936022
339 1 13.3577 7.98975 2.60791
340 1 0.516207 7.36316 0.835809
341 1 1.13878 7.60698 1.62741
342 1 1.72892 8.19415 12.8879
343 1 1.06634 8.03194 2.45052
344 1 1.59632 7.73692 0.787299
345 1 2.17106 7.73973 1.63137
346 1 2.90267 8.39015 0.208538
347 1 2.1903 8.24291 2.50294
348 1 2.64791 7.73973 0.731374
349 1 3.13813 7.91028 1.5709
350 1 3.87687 8.4422 12.8583
351 1 2.72201 9.58004 3.24977
352 1 3.91647 7.95512 0.972708
353 1 0.561565 4.73124 3.38155
354 1 0.594772 4.04376 4.01507
355 1 1.64366 4.92284 3.24863
356 1 1.74564 4.4464 4.12047
357 1 2.9039 4.97283 3.24133
358 1 2.81145 4.47774 4.04122
359 1 3.91253 5.10414 3.34742
360 1 4.02257 4.52254 4.12981
361 1 0.537904 5.9016 3.06386
362 1 0.535104 5.4241 3.90084
363 1 1.70378 5.97148 3.21996
364 1 1.78678 5.45869 4.07068
365 1 2.76295 6.14385 3.21478
366 1 2.94057 5.60219 3.97272
367 1 3.89268 6.23866 3.25602
368 1 4.01723 5.75535 4.11253
369 1 0.503025 6.85964 3.2645
370 1 0.630451 6.40396 4.13098
371 1 1.60097 7.09122 3.23259
372 1 1.67067 6.54481 3.99998
373 1 2.74312 7.22525 3.32299
374 1 2.80527 6.65539 4.06403
375 1 5.06395 7.41184 3.12786
376 1 3.38526 6.75084 4.88288
377 1 0.574119 8.00167 3.30974
378 1 0.48869 7.4807 4.07976
379 1 1.65492 8.06443 3.28788
380 1 1.61805 7.56318 4.2211
381 1 3.89323 8.45443 3.24834
382 1 2.78997 7.79594 3.98797
383 1 3.76671 7.44318 3.10064
384 1 3.92091 7.77917 4.0236
385 1 4.60322 4.64134 1.61229
386 1 4.98171 5.31174 0.104877
387 1 4.47578 5.3178 2.50525
388 1 4.98593 4.6341 0.761611
389 1 5.63168 5.50157 2.52532
390 1 6.08623 4.79255 0.735308
391 1 6.28516 5.58648 3.19245
392 1 5.6153 4.83364 1.74539
393 1 6.61865 4.92656 1.44196
394 1 6.77521 5.49441 12.0698
395 1 6.78208 5.29909 2.37669
396 1 7.29146 4.9563 0.7748
397 1 7.81719 4.68024 1.47332
398 1 8.43288 5.25569 12.9418
399 1 7.90484 5.29377 2.33117
400 1 8.37954 4.58204 0.739314
401 1 4.42596 5.73045 1.6709
402 1 5.01367 6.50005 0.0429791
403 1 4.52712 6.31838 2.47325
404 1 5.00585 5.8305 0.741593
405 1 5.56966 5.85776 1.51796
406 1 6.06402 6.48339 12.9052
407 1 5.66283 6.44149 2.26257
408 1 6.14979 5.94651 0.757842
409 1 6.706 6.13802 1.67627
410 1 7.15398 5.87987 0.804757
411 1 6.75578 6.49342 2.37901
412 1 7.36031 5.38661 12.8908
413 1 7.81907 5.91515 1.60604
414 1 8.45094 6.38498 0.00348133
415 1 7.94 6.50806 2.49231
416 1 8.29142 5.79448 0.694776
417 1 4.62305 6.76586 1.68959
418 1 4.89309 7.66466 0.0897967
419 1 4.4478 7.45771 2.42055
420 1 5.10986 6.97836 0.888821
421 1 5.673 7.241 1.75143
422 1 6.09994 7.55964 12.9321
423 1 5.86431 7.6189 2.76143
424 1 6.2185 6.9882 0.830051
425 1 6.88671 7.25724 1.58649
426 1 7.10793 7.70024 0.0774976
427 1 6.72597 7.69477 2.48041
428 1 7.26732 6.97887 0.836618
429 1 7.88275 6.99474 1.70305
430 1 8.35473 6.94697 0.820605
431 1 7.76829 7.61917 2.39695
432 1 9.01796 6.74966 1.56244
433 1 4.444 7.90546 1.6896
434 1 4.96005 8.73009 12.9437
435 1 4.5064 8.63369 2.38751
436 1 5.09291 8.10789 0.889317
437 1 5.5596 8.11918 1.68785
438 1 6.1788 8.77606 0.0584013
439 1 5.5918 8.78182 2.42316
440 1 6.18431 8.18533 0.768217
441 1 6.60862 8.30837 1.58226
442 1 7.2606 8.7941 12.8454
443 1 6.61046 8.74933 2.56776
444 1 7.42222 8.30345 0.7914
445 1 7.7984 8.13966 1.6891
446 1 8.31238 8.03382 0.862829
447 1 7.96097 9.24977 1.59098
448 1 8.3662 7.54817 12.931
449 1 4.94413 5.08468 3.30858
450 1 5.03531 4.15083 3.15855
451 1 6.1148 6.06479 4.06188
452 1 6.20659 4.45305 3.19158
453 1 7.38624 5.51584 3.1297
454 1 7.34725 4.80727 3.91369
455 1 8.36171 5.06892 3.10674
456 1 8.40328 3.67223 4.12677
457 1 5.14809 5.92751 3.90552
458 1 4.59972 5.14367 5.79005
459 1 6.20639 6.74677 3.19977
460 1 6.19856 7.33553 3.88784
461 1 7.24021 6.5476 3.20541
462 1 7.80764 5.78216 4.94655
463 1 8.36642 6.31678 3.28351
464 1 7.80853 5.28119 5.74316
465 1 5.10633 7.98232 4.19476
466 1 5.13355 6.35262 3.21611
467 1 6.08175 8.22605 4.11077
468 1 5.00112 7.0662 4.05418
469 1 7.21388 8.08337 4.03193
470 1 7.31156 7.62827 3.26894
471 1 8.44318 7.52003 3.26836
472 1 8.24942 6.9251 4.11144
473 1 4.87799 8.58097 3.24281
474 1 4.33785 8.11086 4.73853
475 1 5.71262 8.1566 5.01991
476 1 6.77105 8.14397 4.87271
477 1 7.19793 8.76281 3.34589
478 1 6.76562 9.2269 4.71382
479 1 7.65641 8.78306 2.41024
480 1 8.4137 8.09858 4.073
481 1 8.98825 4.64975 1.61271
482 1 9.49944 4.95611 0.0869755
483 1 9.04282 5.22071 2.36768
484 1 9.46089 4.41254 0.670195
485 1 10.083 4.46505 1.5788
486 1 10.638 4.88516 12.8628
487 1 10.0949 4.96157 2.47787
488 1 10.6373 4.50273 0.811447
489 1 11.282 4.35069 1.58956
490 1 11.7751 4.8271 0.0252381
491 1 11.1619 4.74325 2.31811
492 1 11.726 4.22939 0.723424
493 1 12.3834 4.04516 1.58429
494 1 12.791 4.72741 0.126074
495 1 12.3322 4.61321 2.37104
496 1 12.8907 4.06929 0.824482
497 1 8.83313 5.68217 1.42447
498 1 9.51671 6.00147 0.0451581
499 1 9.44621 6.30115 3.30727
500 1 9.59917 5.52359 0.966129
501 1 10.1889 5.52136 1.6401
502 1 10.5556 5.9852 12.831
503 1 9.94542 6.10482 2.39611
504 1 10.6213 5.5302 0.689248
505 1 11.2913 5.43593 1.60426
506 1 11.6768 5.83917 12.895
507 1 11.0725 5.98161 2.56161
508 1 11.7487 5.39326 0.87319
509 1 12.3407 5.3098 1.7224
510 1 12.847 5.80788 12.8911
511 1 12.1757 5.9509 2.44773
512 1 12.806 5.33762 0.944999
513 1 8.91851 6.24062 2.40551
514 1 9.50747 7.18835 12.9208
515 1 8.87218 7.29323 2.3655
516 1 9.55354 6.70241 0.750789
517 1 10.0608 6.63748 1.52639
518 1 10.5358 7.12365 0.026356
519 1 10.0792 7.16958 2.36975
520 1 10.7063 6.56355 0.794298
521 1 11.2309 6.46095 1.64975
522 1 11.7201 7.03833 12.8856
523 1 11.1055 7.07381 2.44334
524 1 11.7468 6.4262 0.635522
525 1 12.2953 6.42351 1.64047
526 1 12.9106 6.89877 0.0212721
527 1 12.2317 6.94983 2.5065
528 1 12.8016 6.35802 0.863818
529 1 8.93037 7.88019 1.61518
530 1 9.50819 8.35364 12.9112
531 1 8.309 8.60645 3.22377
532 1 9.5191 7.80579 0.766472
533 1 10.0481 7.74935 1.59376
534 1 10.6501 8.21918 12.9216
535 1 10.0768 8.34563 2.3865
536 1 10.5915 7.72985 0.829556
537 1 11.2203 7.49099 1.50989
538 1 11.5977 8.22551 0.0328992
539 1 11.1192 8.14642 2.42333
540 1 11.7824 7.54626 0.753036
541 1 12.2103 7.57813 1.60733
542 1 12.7509 7.97912 0.0808153
543 1 12.1083 8.06351 2.48237
544 1 12.9358 7.45386 0.864845
545 1 9.47177 4.99884 3.25283
546 1 9.54417 4.5268 4.09477
547 1 10.6835 4.98331 3.40078
548 1 10.6591 4.27107 3.92238
549 1 11.7456 4.78689 3.16473
550 1 11.7717 4.25118 4.09411
551 1 12.8607 4.69126 3.21046
552 1 12.8123 4.10284 4.04981
553 1 9.4512 6.82523 4.06221
554 1 9.42424 5.59327 3.9837
555 1 10.4711 5.92656 3.18758
556 1 10.6421 5.64237 4.11929
557 1 11.7259 5.82758 3.27627
558 1 11.6571 5.35302 4.14083
559 1 12.7661 5.7287 3.27847
560 1 12.8435 5.17235 4.04212
561 1 9.62456 8.51811 3.14276
562 1 9.49414 7.43709 3.17242
563 1 10.5573 7.09167 3.26984
564 1 10.6313 6.56235 4.07733
565 1 11.6332 7.14547 3.33255
566 1 11.7314 6.39407 4.01974
567 1 12.8664 6.87171 3.20948
568 1 12.8319 6.38221 3.98982
569 1 8.8736 8.49238 2.42426
570 1 8.98094 7.93255 4.9008
571 1 10.6633 8.16571 3.30122
572 1 10.5048 7.78389 4.07417
573 1 11.7548 8.19599 3.35222
574 1 11.7046 7.51675 4.19458
575 1 12.7187 8.02923 3.31878
576 1 12.9119 7.50648 4.00262
577 1 13.3305 8.51005 1.69847
578 1 0.519169 9.26364 12.8804
579 1 13.3065 9.05169 2.51971
580 1 0.560264 8.73095 0.741388
581 1 0.903419 8.59755 1.54635
582 1 1.67156 9.24606 12.9165
583 1 1.19388 9.11162 2.41375
584 1 1.64519 8.9024 0.910471
585 1 2.11689 8.80844 1.73646
586 1 2.80892 9.51895 12.9443
587 1 2.30934 9.48301 2.34833
588 1 2.76463 9.09094 0.850953
589 1 3.34637 9.04782 1.58735
590 1 3.88551 9.62927 12.8704
591 1 3.3311 8.41557 2.43185
592 1 3.92315 9.00166 0.784144
593 1 0.0809139 9.60092 1.66004
594 1 0.541324 10.3283 12.8637
595 1 0.0487124 10.2011 2.3239
596 1 0.545202 9.81737 0.724227
597 1 1.14555 9.75106 1.64588
598 1 1.79911 10.3469 12.7964
599 1 1.11265 10.3165 2.5144
600 1 1.53432 9.92604 0.752352
601 1 2.1503 10.0227 1.54861
602 1 2.85951 10.5774 12.8661
603 1 2.29848 10.5268 2.25325
604 1 2.81139 10.1327 0.832797
605 1 3.3374 10.192 1.60308
606 1 3.92055 10.8934 0.0531045
607 1 3.40426 10.6543 2.41915
608 1 4.0113 10.1707 0.668734
609 1 0.126836 10.8455 1.58058
610 1 0.591122 11.4834 0.0047783
611 1 13.3918 11.4144 2.47256
612 1 0.611108 10.8803 0.80926
613 1 1.13874 10.9266 1.56038
614 1 1.69118 11.5351 12.8986
615 1 1.09233 11.4263 2.42254
616 1 1.67301 10.9205 0.572236
617 1 2.17518 11.2725 1.6098
618 1 2.8444 11.7276 12.8692
619 1 2.23995 11.6579 2.44808
620 1 2.66909 11.1577 0.712048
621 1 3.28387 11.267 1.57347
622 1 3.97691 11.9789 12.8945
623 1 3.35121 11.7879 2.32764
624 1 3.86032 11.3456 0.81451
625 1 13.4328 11.8727 1.614
626 1 0.69835 12.5903 0.00773978
627 1 13.3553 12.484 2.41218
628 1 0.61159 12.0266 0.803135
629 1 1.08416 12.1382 1.64435
630 1 1.76622 12.6455 12.9428
631 1 1.10702 12.6514 2.45205
632 1 1.54796 12.0835 0.793094
633 1 2.17319 12.3138 1.53024
634 1 2.84852 12.8244 12.8497
635 1 2.20708 12.7675 2.37577
636 1 2.84621 12.1863 0.740138
637 1 3.32726 12.4212 1.62554
638 1 3.85046 12.9764 12.9134
639 1 3.36621 12.9207 2.32056
640 1 3.95228 12.4085 0.911108
641 1 0.622637 9.14817 3.14967
642 1 0.528121 8.60555 3.97095
643 1 1.69064 9.23631 3.21055
644 1 1.68389 8.7001 4.00355
645 1 2.80273 8.47749 3.20214
646 1 2.89546 8.90847 3.9722
647 1 3.35794 9.45155 2.45312
648 1 4.00017 9.64986 3.09548
649 1 0.397919 10.2321 3.16024
650 1 0.555931 9.70714 3.94984
651 1 1.71571 10.466 3.09976
652 1 1.6845 9.89289 3.98438
653 1 2.74758 10.5987 3.15699
654 1 2.87632 10.0315 4.03684
655 1 3.83739 10.8045 3.24229
656 1 3.93235 10.1251 3.97895
657 1 0.580212 11.4128 3.25982
658 1 0.680237 10.8145 4.01078
659 1 1.58874 11.5807 3.24214
660 1 1.73587 10.9794 4.0296
661 1 2.7911 11.7425 3.2064
662 1 2.77015 11.1929 3.95295
663 1 3.84839 11.9326 3.14664
664 1 3.97254 11.2514 4.02569
665 1 0.551607 12.524 3.18308
666 1 0.476543 12.0875 4.06861
667 1 1.71503 12.648 3.25539
668 1 1.67507 12.059 4.10749
669 1 2.83131 12.8525 3.1659
670 1 2.8158 12.3126 3.93901
671 1 3.9327 13.0259 3.30257
672 1 3.96769 12.4452 3.97435
673 1 4.43603 9.13761 1.57524
674 1 5.02209 9.65515 12.9372
675 1 4.55318 9.78312 2.37307
676 1 4.99915 9.15874 0.904376
677 1 5.67202 9.26526 1.51361
678 1 6.17487 11.0453 12.9403
679 1 5.52292 9.80317 2.28384
680 1 6.32061 9.49718 0.838291
681 1 6.80902 9.24182 1.5832
682 1 7.33675 9.94113 12.9283
683 1 6.718 9.85168 2.41271
684 1 7.2876 9.33965 0.812519
685 1 8.35004 9.21591 0.73952
686 1 8.32315 9.77136 12.9349
687 1 7.86551 10.3445 1.63895
688 1 8.4731 8.64557 12.9013
689 1 4.42096 10.2665 1.56683
690 1 5.17682 10.7912 0.0656372
691 1 4.52786 10.8083 2.41166
692 1 4.98272 10.2416 0.787833
693 1 5.62045 10.4067 1.61224
694 1 5.60295 11.0743 12.085
695 1 5.68516 11.0007 2.35248
696 1 6.16417 9.95704 0.039669
697 1 6.19541 10.5756 0.940377
698 1 7.21623 11.0216 0.110156
699 1 6.84017 10.9724 2.50657
700 1 6.78754 10.341 1.70332
701 1 7.33537 10.4261 0.853912
702 1 8.37129 10.8309 12.9
703 1 8.0446 10.8966 2.44066
704 1 8.39403 10.4219 0.889192
705 1 4.52122 11.3027 1.62071
706 1 5.06185 12.024 0.000803218
707 1 4.42349 11.8728 2.44757
708 1 5.09455 11.4391 0.771658
709 1 5.55126 11.5274 1.58007
710 1 6.23237 12.1419 12.9294
711 1 5.5807 12.2821 2.34466
712 1 6.2063 11.6421 0.81993
713 1 6.65457 11.6322 1.67611
714 1 7.33111 12.0265 12.9234
715 1 6.75256 12.1813 2.42169
716 1 7.28303 11.6104 0.863512
717 1 7.75435 11.4402 1.70171
718 1 8.48907 11.9258 12.9476
719 1 7.91254 11.9959 2.41819
720 1 8.44558 11.4143 0.845703
721 1 4.4846 12.478 1.68644
722 1 5.07037 13.293 12.8209
723 1 4.45555 13.0725 2.44758
724 1 5.06977 12.5746 0.617725
725 1 5.51464 12.6675 1.52396
726 1 6.08379 13.307 0.0182312
727 1 5.7235 13.2532 2.48751
728 1 6.20004 12.8043 0.813602
729 1 6.73278 12.7734 1.50246
730 1 7.32238 13.2046 12.9356
731 1 6.70018 13.2317 2.29381
732 1 7.4001 12.6425 0.829262
733 1 7.86614 12.568 1.63389
734 1 8.44481 13.1073 0.0343649
735 1 7.8504 13.1487 2.46107
736 1 8.37984 12.5281 0.716542
737 1 5.15523 9.66074 3.21603
738 1 5.01115 9.11521 3.98396
739 1 6.13998 9.962 3.1231
740 1 6.20685 9.30818 3.95491
741 1 7.8257 9.84826 2.50457
742 1 7.40127 9.39952 3.97707
743 1 8.4406 9.73779 3.14563
744 1 8.90381 9.20395 4.94555
745 1 5.14331 10.9258 3.13984
746 1 4.96987 10.2759 3.80355
747 1 6.12179 11.0313 3.1328
748 1 6.14252 10.4044 4.08472
749 1 7.33498 11.0181 3.23749
750 1 7.26486 10.4589 4.10103
751 1 8.47216 10.8521 3.34452
752 1 8.31486 10.1861 4.06917
753 1 5.05133 12.0934 3.13744
754 1 5.0642 11.5444 3.83946
755 1 6.24076 12.0373 3.0631
756 1 6.14654 11.5361 4.04741
757 1 7.26415 12.1762 3.20984
758 1 7.24723 11.6739 3.97472
759 1 8.34957 11.9248 3.26532
760 1 8.44026 11.3293 4.09531
761 1 4.9482 13.2307 3.18
762 1 5.11333 12.7035 4.01618
763 1 6.20682 13.2968 3.34391
764 1 6.19732 12.5959 3.883
765 1 7.25933 13.2799 3.09121
766 1 7.29654 12.7838 3.95649
767 1 8.45064 13.0969 3.18307
768 1 8.47754 12.3962 4.06295
769 1 8.97141 9.00396 1.67114
770 1 9.45582 9.55171 12.8737
771 1 9.0493 9.66226 2.44788
772 1 9.37721 8.93427 0.740421
773 1 10.0234 8.85148 1.53716
774 1 10.6053 9.3212 12.9444
775 1 10.0677 9.49533 2.33732
776 1 10.5438 8.83006 0.902669
777 1 11.1697 8.59988 1.60285
778 1 11.7387 9.2552 0.230018
779 1 11.1604 9.20642 2.36064
780 1 11.8159 8.65496 0.890503
781 1 12.3131 8.59257 1.69943
782 1 12.7973 9.16167 0.0133591
783 1 12.1814 9.16525 2.54761
784 1 12.9613 8.58451 0.720803
785 1 9.03423 10.0512 1.49979
786 1 9.4381 10.6313 0.0321347
787 1 8.99583 10.6849 2.25454
788 1 9.61712 9.96278 0.798499
789 1 10.1465 10.1179 1.5605
790 1 10.6167 10.5819 0.099374
791 1 10.0624 10.5118 2.49428
792 1 10.6549 9.95211 0.782982
793 1 11.2067 9.77387 1.67813
794 1 11.6831 10.3122 12.9169
795 1 11.1718 10.401 2.50101
796 1 11.6794 9.8862 0.8849
797 1 12.2846 9.59464 1.63246
798 1 12.7934 10.1463 0.0658758
799 1 12.3965 10.247 2.33881
800 1 12.9342 9.66254 0.982044
801 1 8.98176 11.3321 1.62612
802 1 9.50258 11.8662 0.13608
803 1 9.05081 11.9453 2.437
804 1 9.62527 11.1657 0.662316
805 1 10.0308 11.1384 1.58411
806 1 10.68 11.725 12.9309
807 1 10.0939 11.5755 2.45338
808 1 10.7661 11.1628 0.920363
809 1 11.2184 10.9583 1.71232
810 1 11.779 11.4142 0.127213
811 1 11.0755 11.521 2.43799
812 1 11.8561 10.8523 0.929496
813 1 12.4047 10.8425 1.68745
814 1 12.8338 11.3012 12.9425
815 1 12.2005 11.381 2.42344
816 1 12.8659 10.6652 0.779164
817 1 8.89433 12.3761 1.62472
818 1 9.56116 12.9264 12.8288
819 1 8.9823 12.9536 2.40495
820 1 9.51895 12.3777 0.921967
821 1 10.1189 12.2285 1.61451
822 1 10.6694 12.8484 12.8321
823 1 10.0469 12.8596 2.32728
824 1 10.7083 12.1816 0.76388
825 1 11.2514 12.1395 1.65753
826 1 11.8215 12.56 0.028106
827 1 11.2501 12.6118 2.38354
828 1 11.7743 12.041 0.817811
829 1 12.3024 11.8999 1.57343
830 1 13.0649 12.5106 0.166826
831 1 12.2719 12.4538 2.36779
832 1 12.8697 11.8414 0.796314
833 1 9.64984 9.56208 3.21662
834 1 10.0349 8.97991 4.76978
835 1 10.6358 9.35296 3.21146
836 1 10.5657 8.9714 3.96996
837 1 11.6073 9.29657 3.29332
838 1 11.7718 8.64594 4.16185
839 1 12.8588 9.22413 3.26744
840 1 12.915 8.65363 4.02258
841 1 9.36557 10.6787 3.1513
842 1 9.63778 10.032 3.97664
843 1 10.6451 10.5049 3.25738
844 1 10.7407 9.9957 4.13588
845 1 11.7863 10.3845 3.25628
846 1 11.7941 9.79114 4.09243
847 1 12.8198 10.3065 3.21365
848 1 12.9393 9.82401 4.1756
849 1 9.51731 11.8184 3.19865
850 1 9.62724 11.1554 4.08599
851 1 10.6159 11.744 3.35256
852 1 10.4808 11.1254 4.03928
853 1 11.7193 11.5053 3.25824
854 1 11.8011 10.8993 3.96624
855 1 12.8805 11.321 3.17799
856 1 13.0009 10.9404 4.07036
857 1 9.52543 12.9631 3.30595
858 1 9.52037 12.2452 4.06217
859 1 10.5527 12.7226 3.14243
860 1 10.6757 12.257 4.16007
861 1 11.6658 12.5863 3.20758
862 1 11.7677 12.1588 4.07273
863 1 12.7572 12.4534 3.14098
864 1 12.8557 11.9897 3.99747
865 1 0.0121142 13.0975 4.87083
866 1 0.040968 0.213105 5.65935
867 1 1.17504 13.1867 4.85494
868 1 1.16863 0.278156 5.73439
869 1 2.18068 13.2916 4.84467
870 1 2.34002 0.356146 5.58988
871 1 3.39744 0.0740514 4.88807
872 1 3.42526 0.660977 5.57121
873 1 0.00603981 0.831311 4.89846
874 1 13.4331 1.3479 5.70981
875 1 1.01922 0.839302 4.96757
876 1 1.16505 1.45132 5.64354
877 1 2.24933 0.976538 4.72214
878 1 2.20778 1.37053 5.57203
879 1 3.35314 1.22974 4.81721
880 1 3.3046 1.77065 5.74364
881 1 13.2062 1.95705 4.85111
882 1 0.0946809 2.46766 5.67814
883 1 1.09967 2.06009 4.86595
884 1 1.13639 2.4523 5.67358
885 1 2.27002 2.12841 4.89609
886 1 2.34505 2.64837 5.71089
887 1 3.2854 2.22393 4.85532
888 1 3.50832 2.86682 5.60596
889 1 0.0436918 3.0783 4.91939
890 1 0.137316 3.69879 5.61232
891 1 1.14357 3.18361 4.8591
892 1 1.18905 3.67737 5.66541
893 1 2.16411 3.2547 4.84893
894 1 2.47433 3.70321 5.74784
895 1 3.47072 3.42123 4.82531
896 1 3.47674 3.96842 5.77698
897 1 0.0207745 12.9543 7.9109
898 1 0.710044 0.26773 6.5085
899 1 0.542793 13.0386 7.19289
900 1 1.11674 13.2335 8.11668
901 1 1.81069 0.419282 6.36185
902 1 1.67994 13.195 7.27489
903 1 2.23264 13.2649 8.15942
904 1 2.85376 0.414388 6.53049
905 1 2.90003 13.3042 7.32393
906 1 3.38562 0.252032 8.00677
907 1 3.90808 0.673885 6.5103
908 1 4.13077 0.0985732 7.30889
909 1 0.000917737 0.51134 8.17402
910 1 0.516525 1.36348 6.49149
911 1 0.65976 0.770348 7.28975
912 1 1.16795 0.873483 8.09268
913 1 1.63087 1.48682 6.65994
914 1 1.75721 0.818833 7.282
915 1 2.26318 0.998989 8.15422
916 1 2.64044 1.60956 6.36147
917 1 2.78795 1.06906 7.15805
918 1 3.52698 0.70043 8.87774
919 1 4.01288 2.36349 7.28055
920 1 3.89427 1.36114 7.19254
921 1 0.0227333 1.76507 8.10347
922 1 0.538869 2.43295 6.54488
923 1 0.554099 1.8278 7.43296
924 1 1.24594 1.82852 8.12172
925 1 1.71268 2.67289 6.38356
926 1 1.67375 2.18761 7.256
927 1 2.21739 2.08256 8.06998
928 1 2.9461 2.57673 6.56275
929 1 2.83229 2.15813 7.36449
930 1 3.38028 1.74317 8.79574
931 1 3.9497 2.88933 6.4238
932 1 3.412 2.34518 8.11554
933 1 0.0167812 3.04785 8.10211
934 1 0.51652 3.4549 6.53983
935 1 0.633068 2.94262 7.39423
936 1 1.23893 3.06667 8.10471
937 1 1.62439 3.61582 6.45556
938 1 1.70479 3.22247 7.2529
939 1 2.29975 3.15557 8.22879
940 1 2.87382 3.87492 6.53585
941 1 2.76455 3.33673 7.16891
942 1 3.35088 3.38024 7.96622
943 1 3.95495 3.48502 7.34983
944 1 3.93738 1.71737 6.39447
945 1 4.52649 0.0688132 4.73902
946 1 4.51001 0.748485 5.70584
947 1 5.57914 0.298626 4.89691
948 1 5.54007 0.793952 5.67404
949 1 6.66003 0.245014 4.91619
950 1 6.75804 0.900698 5.5612
951 1 7.84618 0.0655257 4.91638
952 1 7.82693 0.754608 5.67814
953 1 4.51067 1.26813 4.8412
954 1 4.50567 1.97021 5.63027
955 1 5.67112 1.48488 4.84304
956 1 5.55274 2.03684 5.53474
957 1 6.7492 1.52059 4.93427
958 1 6.78996 2.13002 5.68699
959 1 8.04381 1.21579 4.83353
960 1 7.80469 1.83718 5.64009
961 1 4.52914 2.55704 5.0777
962 1 4.57958 4.09543 5.77796
963 1 5.76516 2.747 4.92793
964 1 5.62048 3.18785 5.89809
965 1 6.83408 2.61527 4.75439
966 1 6.81527 3.27011 5.71704
967 1 7.94178 2.46248 4.90044
968 1 7.84305 3.14783 5.6436
969 1 5.75228 3.74374 4.85512
970 1 3.95095 4.08777 6.75194
971 1 5.19912 4.83813 4.12918
972 1 5.53583 4.25552 5.64139
973 1 6.74748 3.67483 4.90076
974 1 6.74673 4.37278 5.5319
975 1 7.98252 4.19879 5.67577
976 1 8.34035 4.22359 6.55374
977 1 4.60494 0.293104 8.12329
978 1 5.07931 0.91463 6.47465
979 1 5.19875 0.311401 7.28138
980 1 5.63084 0.288096 8.18566
981 1 6.19454 0.962853 6.34178
982 1 6.21111 0.387378 7.21873
983 1 6.78428 13.1347 8.95215
984 1 7.26441 0.898892 6.45117
985 1 6.71788 0.303791 8.08874
986 1 7.87519 0.320846 8.28979
987 1 8.4425 0.664803 6.60222
988 1 8.25342 0.171467 7.35841
989 1 4.44479 1.29333 8.06318
990 1 5.11412 2.04801 6.40663
991 1 4.9912 1.40341 7.22235
992 1 5.56948 1.47005 8.04309
993 1 6.13017 1.99064 6.36008