#******************************************************************
units           metal
atom_style      atomic
boundary        p p p

lattice         custom ${alatt} a1 1.0 0.0 0.0 a2 0.0 1.0 0.0 a3 0.0 0.0 ${c_vs_a}                 basis 0.0000000000000000  0.0000000000000000  0.5000000000000000                 basis 0.5000000000000000  0.5000000000000000  0.0000000000000000                 basis 0.0000000000000000  0.5000000000000000  0.7500000000000000                 basis 0.5000000000000000  0.0000000000000000  0.2500000000000000
lattice         custom 1.11979 a1 1.0 0.0 0.0 a2 0.0 1.0 0.0 a3 0.0 0.0 ${c_vs_a}                 basis 0.0000000000000000  0.0000000000000000  0.5000000000000000                 basis 0.5000000000000000  0.5000000000000000  0.0000000000000000                 basis 0.0000000000000000  0.5000000000000000  0.7500000000000000                 basis 0.5000000000000000  0.0000000000000000  0.2500000000000000
lattice         custom 1.11979 a1 1.0 0.0 0.0 a2 0.0 1.0 0.0 a3 0.0 0.0 2.89160467587673                 basis 0.0000000000000000  0.0000000000000000  0.5000000000000000                 basis 0.5000000000000000  0.5000000000000000  0.0000000000000000                 basis 0.0000000000000000  0.5000000000000000  0.7500000000000000                 basis 0.5000000000000000  0.0000000000000000  0.2500000000000000
Lattice spacing in x,y,z = 1.11979 1.11979 3.23799

region          R_box prism -${nbx} ${nbx} -${nby} ${nby} -${nbz} ${nbz} 0 0 0
region          R_box prism -6 ${nbx} -${nby} ${nby} -${nbz} ${nbz} 0 0 0
region          R_box prism -6 6 -${nby} ${nby} -${nbz} ${nbz} 0 0 0
region          R_box prism -6 6 -6 ${nby} -${nbz} ${nbz} 0 0 0
region          R_box prism -6 6 -6 6 -${nbz} ${nbz} 0 0 0
region          R_box prism -6 6 -6 6 -2 ${nbz} 0 0 0
region          R_box prism -6 6 -6 6 -2 2 0 0 0
create_box      1 R_box
Created triclinic box = (-6.71874 -6.71874 -6.47598) to (6.71874 6.71874 6.47598) with tilt (0 0 0)
  1 by 1 by 1 MPI processor grid
create_atoms    1 box basis 1 1                       basis 2 1                       basis 3 1                       basis 4 1
Created 2304 atoms
  using lattice units in triclinic box = (-6.71874 -6.71874 -6.47598) to (6.71874 6.71874 6.47598) with tilt (0 0 0)
  create_atoms CPU = 0.001 seconds
# H deep potential
pair_style      deepmd H.pb fparam $T
pair_style      deepmd H.pb fparam 200
Summary of lammps deepmd module ...
  >>> Info of deepmd-kit:
  installed to:       /work/home/acl7i3im69/soft/deepmd-kit
  source:             
  source branch:      HEAD
  source commit:      c45d372
  source commit at:   2024-07-07 08:06:13 +0000
  support model ver.: 1.1 
  build variant:      cuda
  build with tf inc:  /work/home/acl7i3im69/soft/deepmd-kit/lib/python3.11/site-packages/tensorflow/include;/work/home/acl7i3im69/soft/deepmd-kit/include
  build with tf lib:  /work/home/acl7i3im69/soft/deepmd-kit/lib/python3.11/site-packages/tensorflow/libtensorflow_cc.so.2
  set tf intra_op_parallelism_threads: 0
  set tf inter_op_parallelism_threads: 4
  >>> Info of lammps module:
  use deepmd-kit at:  /work/home/acl7i3im69/soft/deepmd-kitpair_coeff      * *
mass            1 1.000000

neighbor        1 bin
neigh_modify    every 10 delay 0 check no

compute         pe all pe/atom
compute         ke all ke/atom

thermo          100
thermo_style    custom step pe vol density enthalpy press pxx pyy pzz pxy pxz pyz

# 1. dump files of pristine structure with different alatt
reset_timestep  0
dump            1 all cfg 1 bulk.*.cfg mass type xs ys zs id c_pe
dump_modify     1 element H
run             0

CITE-CITE-CITE-CITE-CITE-CITE-CITE-CITE-CITE-CITE-CITE-CITE-CITE

Your simulation uses code contributions which should be cited:

- USER-DEEPMD package:

@article{Wang_ComputPhysCommun_2018_v228_p178,
  author = {Wang, Han and Zhang, Linfeng and Han, Jiequn and E, Weinan},
  doi = {10.1016/j.cpc.2018.03.016},
  url = {https://doi.org/10.1016/j.cpc.2018.03.016},
  year = 2018,
  month = {jul},
  publisher = {Elsevier {BV}},
  volume = 228,
  journal = {Comput. Phys. Commun.},
  title = {{DeePMD-kit: A deep learning package for many-body potential energy representation and molecular dynamics}},
  pages = {178--184}
}
@misc{Zeng_JChemPhys_2023_v159_p054801,
  title  = {{DeePMD-kit v2: A software package for deep potential models}},
  author =   {Jinzhe Zeng and Duo Zhang and Denghui Lu and Pinghui Mo and Zeyu Li
         and Yixiao Chen and Mari{\'a}n Rynik and Li'ang Huang and Ziyao Li and 
         Shaochen Shi and Yingze Wang and Haotian Ye and Ping Tuo and Jiabin
         Yang and Ye Ding and Yifan Li and Davide Tisi and Qiyu Zeng and Han 
         Bao and Yu Xia and Jiameng Huang and Koki Muraoka and Yibo Wang and 
         Junhan Chang and Fengbo Yuan and Sigbj{\o}rn L{\o}land Bore and Chun
         Cai and Yinnian Lin and Bo Wang and Jiayan Xu and Jia-Xin Zhu and 
         Chenxing Luo and Yuzhi Zhang and Rhys E A Goodall and Wenshuo Liang
         and Anurag Kumar Singh and Sikai Yao and Jingchao Zhang and Renata
         Wentzcovitch and Jiequn Han and Jie Liu and Weile Jia and Darrin M
         York and Weinan E and Roberto Car and Linfeng Zhang and Han Wang},
  journal =  {J. Chem. Phys.},
  volume =   159,
  issue =    5,  
  year =    2023,
  pages  =   054801,
  doi =      {10.1063/5.0155600},
}

CITE-CITE-CITE-CITE-CITE-CITE-CITE-CITE-CITE-CITE-CITE-CITE-CITE

WARNING: No fixes with time integration, atoms won't move (src/verlet.cpp:60)
Generated 0 of 0 mixed pair_coeff terms from geometric mixing rule
Neighbor list info ...
  update: every = 10 steps, delay = 0 steps, check = no
  max neighbors/atom: 2000, page size: 100000
  master list distance cutoff = 7
  ghost atom cutoff = 7
  binsize = 3.5, bins = 4 4 4
  1 neighbor lists, perpetual/occasional/extra = 1 0 0
  (1) pair deepmd, perpetual
      attributes: full, newton on
      pair build: full/bin/atomonly
      stencil: full/bin/3d
      bin: standard
Per MPI rank memory allocation (min/avg/max) = 19.72 | 19.72 | 19.72 Mbytes
   Step         PotEng         Volume        Density        Enthalpy        Press           Pxx            Pyy            Pzz            Pxy            Pxz            Pyz      
         0  -1101.7717      2338.6819      1.6359137      8632.1936      6668512.9      6879667.9      6879667.9      6246203        4.9723436e-12 -3.7325853e-11 -8.3664673e-13
Loop time of 1.68e-06 on 2 procs for 0 steps with 2304 atoms

178.6% CPU use with 1 MPI tasks x 2 OpenMP threads

MPI task timing breakdown:
Section |  min time  |  avg time  |  max time  |%varavg| %total
---------------------------------------------------------------
Pair    | 0          | 0          | 0          |   0.0 |  0.00
Neigh   | 0          | 0          | 0          |   0.0 |  0.00
Comm    | 0          | 0          | 0          |   0.0 |  0.00
Output  | 0          | 0          | 0          |   0.0 |  0.00
Modify  | 0          | 0          | 0          |   0.0 |  0.00
Other   |            | 1.68e-06   |            |       |100.00

Nlocal:           2304 ave        2304 max        2304 min
Histogram: 1 0 0 0 0 0 0 0 0 0
Nghost:          17480 ave       17480 max       17480 min
Histogram: 1 0 0 0 0 0 0 0 0 0
Neighs:              0 ave           0 max           0 min
Histogram: 1 0 0 0 0 0 0 0 0 0
FullNghs:  3.29933e+06 ave 3.29933e+06 max 3.29933e+06 min
Histogram: 1 0 0 0 0 0 0 0 0 0

Total # of neighbors = 3299328
Ave neighs/atom = 1432
Neighbor list builds = 0
Dangerous builds not checked
shell           mv bulk.0.cfg bulk.cfg
undump          1

# 2. create voids
# ---change this part --- begin----
variable        radius equal 0.01 # unit : A
variable        x1 equal 0.0
variable        y1 equal 0.0
variable        z1 equal 0.5
region          bRR1 sphere ${x1} ${y1} ${z1} ${radius} units lattice
region          bRR1 sphere 0 ${y1} ${z1} ${radius} units lattice
region          bRR1 sphere 0 0 ${z1} ${radius} units lattice
region          bRR1 sphere 0 0 0.5 ${radius} units lattice
region          bRR1 sphere 0 0 0.5 0.01 units lattice

variable        x2 equal 0.0
variable        y2 equal 0.5
variable        z2 equal 0.75
region          bRR2 sphere ${x2} ${y2} ${z2} ${radius} units lattice
region          bRR2 sphere 0 ${y2} ${z2} ${radius} units lattice
region          bRR2 sphere 0 0.5 ${z2} ${radius} units lattice
region          bRR2 sphere 0 0.5 0.75 ${radius} units lattice
region          bRR2 sphere 0 0.5 0.75 0.01 units lattice

variable        x3 equal 0.5
variable        y3 equal 0.0
variable        z3 equal 0.25
region          bRR3 sphere ${x3} ${y3} ${z3} ${radius} units lattice
region          bRR3 sphere 0.5 ${y3} ${z3} ${radius} units lattice
region          bRR3 sphere 0.5 0 ${z3} ${radius} units lattice
region          bRR3 sphere 0.5 0 0.25 ${radius} units lattice
region          bRR3 sphere 0.5 0 0.25 0.01 units lattice

variable        x4 equal 0.0
variable        y4 equal -0.5
variable        z4 equal 0.75
region          bRR4 sphere ${x4} ${y4} ${z4} ${radius} units lattice
region          bRR4 sphere 0 ${y4} ${z4} ${radius} units lattice
region          bRR4 sphere 0 -0.5 ${z4} ${radius} units lattice
region          bRR4 sphere 0 -0.5 0.75 ${radius} units lattice
region          bRR4 sphere 0 -0.5 0.75 0.01 units lattice

variable        x5 equal -0.5
variable        y5 equal 0.0
variable        z5 equal 0.25
region          bRR5 sphere ${x5} ${y5} ${z5} ${radius} units lattice
region          bRR5 sphere -0.5 ${y5} ${z5} ${radius} units lattice
region          bRR5 sphere -0.5 0 ${z5} ${radius} units lattice
region          bRR5 sphere -0.5 0 0.25 ${radius} units lattice
region          bRR5 sphere -0.5 0 0.25 0.01 units lattice

variable        x6 equal 0.0
variable        y6 equal 1.0
variable        z6 equal 0.5
region          bRR6 sphere ${x6} ${y6} ${z6} ${radius} units lattice
region          bRR6 sphere 0 ${y6} ${z6} ${radius} units lattice
region          bRR6 sphere 0 1 ${z6} ${radius} units lattice
region          bRR6 sphere 0 1 0.5 ${radius} units lattice
region          bRR6 sphere 0 1 0.5 0.01 units lattice

region          bRR union 6 bRR1 bRR2 bRR3 bRR4 bRR5 bRR6
variable        bNN equal count(all,bRR)
variable        bNN equal ${bNN}
variable        bNN equal 6

delete_atoms    region bRR
Deleted 6 atoms, new total = 2298
region          bRR1 delete
region          bRR2 delete
region          bRR3 delete
region          bRR4 delete
region          bRR5 delete
region          bRR6 delete

region          bRR delete
print           "delete atoms=${bNN}"
delete atoms=6
# ---change this part --- end ----
# 3. run nvt
variable        dt equal 0.0002   # fs
variable        tdamp equal 100*${dt}
variable        tdamp equal 100*0.0002
timestep        ${dt}
timestep        0.0002
velocity        all create $T ${iseed} dist gaussian rot yes
velocity        all create 200 ${iseed} dist gaussian rot yes
velocity        all create 200 8713 dist gaussian rot yes
fix             1 all nvt temp $T $T ${tdamp}
fix             1 all nvt temp 200 $T ${tdamp}
fix             1 all nvt temp 200 200 ${tdamp}
fix             1 all nvt temp 200 200 0.02

variable        DUMP_STEP equal 1000
variable        runtime equal 40 # unit: ps
variable        nsteps equal ${runtime}/${dt}
variable        nsteps equal 40/${dt}
variable        nsteps equal 40/0.0002

reset_timestep  0
dump            1 all cfg ${DUMP_STEP} voids.*.cfg mass type xs ys zs id c_pe
dump            1 all cfg 1000 voids.*.cfg mass type xs ys zs id c_pe
dump_modify     1 element H
#dump            1 all custom ${DUMP_STEP} voids.xyz id type xs ys zs id c_pe
#dump_modify     1 element H

run             ${nsteps}
run             200000
Generated 0 of 0 mixed pair_coeff terms from geometric mixing rule
Per MPI rank memory allocation (min/avg/max) = 19.97 | 19.97 | 19.97 Mbytes
   Step         PotEng         Volume        Density        Enthalpy        Press           Pxx            Pyy            Pzz            Pxy            Pxz            Pyz      
         0  -1111.3812      2338.6819      1.6316535      8671.0458      6661031.6      6868220.8      6868389.7      6246484.3     -2194.2584      182.17672     -573.39661    
       100  -1096.7232      2338.6819      1.6316535      8639.3618      6642745.1      6788213.7      6789298.1      6350723.4     -1420.2732      785.39622      636.09607    
       200  -1090.0009      2338.6819      1.6316535      8657.7114      6650008.2      6792021.8      6778456.4      6379546.2     -21.795774     -3197.7847     -1665.6832    
       300  -1087.3129      2338.6819      1.6316535      8665.173       6648647.4      6789658.6      6759703.3      6396580.4      2130.1467     -3509.1451     -4611.9082    
       400  -1082.4795      2338.6819      1.6316535      8667.327       6643580.7      6790930.2      6736165.5      6403646.5     -2110.5244     -2112.9695      1775.7       
       500  -1075.9481      2338.6819      1.6316535      8688.2284      6650691.1      6788915.7      6753250.3      6409907.2     -2962.2407     -2631.428      -7688.6303    
       600  -1071.9104      2338.6819      1.6316535      8713.8556      6662735.3      6796794        6777761.1      6413650.8      8145.0904      21.493864     -1370.7652    
       700  -1069.2196      2338.6819      1.6316535      8724.2256      6667079.4      6784303.2      6793037.6      6423897.3     -1032.857      -2175.4266     -810.8652     
       800  -1071.2545      2338.6819      1.6316535      8721.3818      6666532.6      6777240.7      6797290.9      6425066.3     -2698.5246     -415.787       -403.24426    
       900  -1072.7025      2338.6819      1.6316535      8704.979       6657981.5      6765917.8      6794155.9      6413870.7     -2659.065      -6073.0581      6412.5342    
      1000  -1072.6773      2338.6819      1.6316535      8694.5655      6652494.8      6763939.2      6788094.5      6405450.7      584.81519     -3589.1197      701.18965    
      1100  -1074.0778      2338.6819      1.6316535      8702.5549      6657914.9      6774093.3      6786645.7      6413005.8      139.57964      257.90315     -3732.9774    
      1200  -1071.6812      2338.6819      1.6316535      8717.8134      6666051.4      6782170.6      6791678.7      6424305       -41.952998      578.1313      -1487.4041    
      1300  -1070.1253      2338.6819      1.6316535      8724.8408      6669287.3      6792305.2      6787513.2      6428043.6      5605.9508      3846.301       670.04235    
      1400  -1069.1539      2338.6819      1.6316535      8722.0257      6666739.8      6797473.5      6792329.6      6410416.4     -34.519432      2179.7412      4537.6613    
      1500  -1071.4074      2338.6819      1.6316535      8713.4984      6662442.5      6793598.9      6786252.5      6407476.1     -360.17189      5445.7779     -1853.8518    
      1600  -1072.1381      2338.6819      1.6316535      8710.7221      6662296.7      6788691.7      6784548.4      6413649.9      1271.2671     -1682.8112     -1438.0066    
      1700  -1072.9585      2338.6819      1.6316535      8702.8089      6657112.9      6778167.5      6780879.4      6412291.9      3314.6428      1087.5027      3686.8545    
      1800  -1072.6344      2338.6819      1.6316535      8714.0735      6664233        6785865.6      6786756.3      6420077        1411.3481     -2408.0433     -737.53171    
      1900  -1072.5966      2338.6819      1.6316535      8715.8114      6664218        6784040.1      6787573.8      6421040.1      1148.0527     -5342.4857      3960.939     
      2000  -1072.8012      2338.6819      1.6316535      8711.1242      6661356.4      6779540.3      6786093.4      6418435.7      2391.4689     -8987.3116      435.40254    
      2100  -1074.1095      2338.6819      1.6316535      8703.65        6657732.3      6768490.4      6783863.9      6420842.7     -5468.083      -2953.8062     -726.94529    
      2200  -1073.3985      2338.6819      1.6316535      8697.7568      6654416.2      6761709.5      6782139.2      6419399.8     -4867.1475     -5431.7595      363.07936    
      2300  -1075.0586      2338.6819      1.6316535      8697.1349      6653643.6      6757747.1      6789773        6413410.6     -978.67059     -1285.085       3714.5607    
      2400  -1076.2447      2338.6819      1.6316535      8701.9038      6656631        6751046.3      6792182.6      6426664.2      4874.6033     -3389.591       3276.3048    
      2500  -1074.5027      2338.6819      1.6316535      8700.4134      6655546.5      6745121.4      6798582.2      6422935.9      6465.295      -1104.9005      1727.5311    
      2600  -1074.4808      2338.6819      1.6316535      8703.0446      6657960.3      6750759.1      6800259.3      6422862.5      3184.0939     -1959.7117      2118.1432    
      2700  -1076.1134      2338.6819      1.6316535      8700.1858      6657043.3      6741786.4      6800991.6      6428351.8     -1065.1997     -933.40248     -269.26379    
      2800  -1075.9738      2338.6819      1.6316535      8696.4348      6655337.4      6753323.3      6791388.2      6421300.6     -4178.193       534.025        237.48238    
      2900  -1076.3049      2338.6819      1.6316535      8697.2577      6654806.8      6750339.5      6789916.7      6424164.3     -5227.0136      3102.5364      2476.8799    
      3000  -1074.9906      2338.6819      1.6316535      8708.507       6660951.4      6757213.1      6797816        6427825.2     -2582.2962      5568.0867     -3010.3947    
      3100  -1074.7143      2338.6819      1.6316535      8709.5031      6660589.5      6763543        6798589        6419636.4      3119.3057     -1706.1502      3873.1737    
      3200  -1072.4102      2338.6819      1.6316535      8708.318       6659884.1      6766117.5      6794261.5      6419273.2      4774.3458      2688.0377      2810.9793    
      3300  -1074.0529      2338.6819      1.6316535      8706.8752      6660108.8      6764696.5      6798104.9      6417524.9      3358.4724     -3321.0156      2304.5758    
      3400  -1076.3753      2338.6819      1.6316535      8708.5017      6662252.3      6762020.8      6804211.9      6420524.1      4928.7885      973.29135      3222.3008    
      3500  -1074.3862      2338.6819      1.6316535      8705.9789      6660208        6753560.7      6799052.7      6428010.6      3252.6358     -826.86773     -319.9675     
      3600  -1074.8417      2338.6819      1.6316535      8703.9055      6658578.1      6752481.8      6795062.8      6428189.6      7676.5182     -2804.5547      1679.7003    
      3700  -1074.6257      2338.6819      1.6316535      8699.3928      6655429.8      6740619.4      6796053.2      6429616.9      788.2536      -1552.9324      1530.8471    
      3800  -1075.5446      2338.6819      1.6316535      8695.826       6653499.8      6733953.3      6798601        6427945.1     -490.38116      298.70398      4559.9304    
      3900  -1075.18        2338.6819      1.6316535      8696.8006      6654580        6733887.2      6800528.1      6429324.6     -2714.3516      2691.7615     -5756.474     
      4000  -1075.2825      2338.6819      1.6316535      8696.0075      6653717.6      6737324.5      6792741.5      6431086.7      4564.7084     -4279.9481     -2260.8894    
      4100  -1075.5539      2338.6819      1.6316535      8697.9931      6654413.5      6746731        6796540.6      6419968.9      1056.6334      1358.1641      2685.5735    
      4200  -1074.7075      2338.6819      1.6316535      8700.6402      6655911.5      6753585.5      6800961.8      6413187.3      6634.8109     -4668.4317     -965.51916    
      4300  -1075.4772      2338.6819      1.6316535      8700.86        6656645.4      6755548.9      6796186.4      6418201        7470.5143     -2309.3678     -2131.6759    
      4400  -1074.8593      2338.6819      1.6316535      8703.5911      6658499.9      6761232.6      6797560.4      6416706.6      3578.7407      1523.8138      1745.7684    
      4500  -1073.7405      2338.6819      1.6316535      8700.1589      6655232.5      6751042        6798776        6415879.4      710.37582     -2084.9024     -2351.4559    
      4600  -1074.0945      2338.6819      1.6316535      8705.3605      6657000.3      6752160.6      6803251.2      6415589.1      2278.0682     -663.33432     -2676.0727    
      4700  -1072.6109      2338.6819      1.6316535      8707.2495      6657116        6742596.4      6796477.5      6432274.1     -428.84006     -961.79196     -2680.1065    
      4800  -1073.6132      2338.6819      1.6316535      8705.5542      6657426.3      6741817.8      6798832.9      6431628.1     -6486.6583      2450.8887      821.4292     
      4900  -1074.2843      2338.6819      1.6316535      8701.287       6655059.5      6743528        6794770.3      6426880.1      2365.8147     -2968.1917      852.58894    
      5000  -1074.3557      2338.6819      1.6316535      8697.334       6653431.6      6742631.6      6798368        6419295.3      1539.4078      2188.9424     -3201.6868    
      5100  -1075.0479      2338.6819      1.6316535      8700.2705      6655944.3      6746029.1      6800434.8      6421368.8      4273.4702      1453.2888      433.92439    
      5200  -1073.2379      2338.6819      1.6316535      8699.0525      6655255.3      6742555.2      6803391.6      6419819.2      6466.458       4867.9844     -2.0327942    
      5300  -1075.153       2338.6819      1.6316535      8705.5782      6659808.9      6754516.5      6798127        6426783.2      2576.0177      6242.7491     -6613.9608    
      5400  -1075.477       2338.6819      1.6316535      8705.7361      6660240.4      6748459.9      6799244.6      6433016.8      4062.5166      2575.3229      3847.4809    
      5500  -1075.9657      2338.6819      1.6316535      8702.5377      6658887.9      6755010.4      6791780.9      6429872.4      3882.9577      598.88881     -1631.9002    
      5600  -1076.7466      2338.6819      1.6316535      8699.0003      6656248.8      6754867.9      6794500.1      6419378.3     -1748.2636      2204.3962     -5234.0161    
      5700  -1075.6         2338.6819      1.6316535      8701.8491      6656565.4      6744255.4      6800891.3      6424549.6     -3074.8685     -328.49067      6533.1709    
      5800  -1072.1051      2338.6819      1.6316535      8706.951       6657678.7      6747690.1      6796253.7      6429092.3     -1451.1877      7596.0419      169.36863    
      5900  -1071.6781      2338.6819      1.6316535      8707.9739      6657441.1      6740474.7      6799868.5      6431979.9      2552.7497      4367.6837     -5280.0786    
      6000  -1074.2029      2338.6819      1.6316535      8705.311       6657475.1      6738313.7      6797608.3      6436503.1     -1774.0837     -3936.6499      993.45789    
      6100  -1074.7589      2338.6819      1.6316535      8700.741       6655561.1      6736219.7      6792414.5      6438049        2873.3184      730.01766      1574.8814    
      6200  -1074.8593      2338.6819      1.6316535      8698.9741      6655264.1      6741025.5      6793551.3      6431215.4     -1067.0788     -1820.1046      3624.7834    
      6300  -1074.123       2338.6819      1.6316535      8699.3479      6655465.7      6749709        6793112.7      6423575.4      4306.1476     -216.29386      6195.7961    
      6400  -1076.6387      2338.6819      1.6316535      8703.7534      6658560.9      6757399.2      6801005        6417278.6     -2019.3969     -5323.545       2183.2209    
      6500  -1075.2691      2338.6819      1.6316535      8704.6863      6659324.5      6752274.5      6797844.1      6427855        3002.0407      2627.44       -809.11422    
      6600  -1075.2967      2338.6819      1.6316535      8702.6722      6658094.3      6755027        6796192.7      6423063.4     -2793.4626      3285.2758     -1127.6856    
      6700  -1075.4224      2338.6819      1.6316535      8700.7149      6656917.5      6750600.3      6800122.7      6420029.6     -2163.7464     -1926.1589     -2931.6981    
      6800  -1074.2048      2338.6819      1.6316535      8699.8653      6656949.4      6744575.3      6804763.8      6421509.3     -1471.4782     -495.94053     -3615.5414    
      6900  -1076.1184      2338.6819      1.6316535      8693.0918      6652540.5      6748234        6795398.6      6413988.8     -481.37899     -1.9724179      677.64035    
      7000  -1074.2605      2338.6819      1.6316535      8696.0541      6653105.4      6733641        6800695.7      6424979.5      6513.2403     -424.55798      648.35188    
      7100  -1073.5451      2338.6819      1.6316535      8704.7289      6656916.5      6742733.5      6802344.3      6425671.5      7693.2734      2886.0777      993.92411    
      7200  -1074.3294      2338.6819      1.6316535      8703.6303      6656280.9      6740023.3      6799884.3      6428935.1     -1655.4931     -1233.5505      2725.6372    
      7300  -1072.0625      2338.6819      1.6316535      8703.0815      6656326.2      6740428.2      6802502.7      6426047.9     -3162.8418      1116.4506      1138.168     
      7400  -1072.8526      2338.6819      1.6316535      8701.6872      6655756.4      6751460.6      6797396.6      6418411.9      1380.6862     -5928.5084     -5674.5255    
      7500  -1071.3187      2338.6819      1.6316535      8707.2799      6660111.1      6752144.3      6791759.3      6436429.7      1374.8975      3685.6847      3799.5189    
      7600  -1073.2453      2338.6819      1.6316535      8705.1366      6658993        6751849.2      6799147.9      6425982.1      6021.6113     -216.57561      2679.1836    
      7700  -1073.7732      2338.6819      1.6316535      8703.8182      6658364.6      6754433.1      6789120.6      6431540.1      5453.7592     -2783.452      -4127.1455    
      7800  -1074.1991      2338.6819      1.6316535      8702.6254      6657737.8      6752524.3      6792578.8      6428110.3      7039.7493     -2.3325596      6286.5479    
      7900  -1076.0294      2338.6819      1.6316535      8694.994       6653933.3      6741185.7      6798347.8      6422266.4     -1834.7983      688.99598     -852.30057    
      8000  -1076.2712      2338.6819      1.6316535      8690.7409      6650434.1      6745511.9      6791406.9      6414383.6      362.27539      2844.9035     -3083.2234    
      8100  -1074.3181      2338.6819      1.6316535      8698.0279      6654710.8      6739562.6      6796310.9      6428258.8     -2592.3459      1966.3253      4509.2928    
      8200  -1074.0094      2338.6819      1.6316535      8703.8035      6657460.5      6735953        6799140.8      6437287.7     -3908.1751      2785.6066     -7165.0332    
      8300  -1074.9603      2338.6819      1.6316535      8705.5592      6657963.6      6753595.3      6792731.3      6427564.1     -4933.018       1109.5386      902.08041    
      8400  -1073.2759      2338.6819      1.6316535      8702.7014      6656364.6      6746797.8      6797492.1      6424803.9      561.16747     -1189.3581      5346.2104    
      8500  -1076.3628      2338.6819      1.6316535      8707.0268      6660618.1      6753708.8      6809625.3      6418520.1      883.53603      2760.6816     -4405.4096    
      8600  -1074.99        2338.6819      1.6316535      8702.2559      6657519.5      6754229.1      6801523        6416806.4      3280.5449     -1336.3869     -3376.5572    
      8700  -1075.9123      2338.6819      1.6316535      8700.2688      6656000.5      6750707        6803051.3      6414243.3      3822.7066     -4132.1564     -1868.8029    
      8800  -1074.3405      2338.6819      1.6316535      8699.8565      6655980.9      6744767.1      6797311.6      6425864.1      1557.893      -716.3556      -5025.0611    
      8900  -1074.5267      2338.6819      1.6316535      8696.532       6654821.9      6741292.7      6798364.9      6424808.2      665.1462       3621.3995      93.650348    
      9000  -1075.7588      2338.6819      1.6316535      8694.0499      6653088.4      6742301        6791461.5      6425502.8     -1987.037      -4327.7572      3355.1838    
      9100  -1075.918       2338.6819      1.6316535      8695.0087      6652466.1      6743392        6794556.9      6419449.6     -1016.7852     -3324.8263     -3367.6922    
      9200  -1073.3364      2338.6819      1.6316535      8704.4293      6656121.8      6736954.5      6806363.7      6425047.2     -3267.9035     -3583.6016     -2752.1269    
      9300  -1072.261       2338.6819      1.6316535      8707.9101      6657767.9      6748503.7      6794921.9      6429877.9     -1355.7858      796.81717     -360.07471    
      9400  -1071.9871      2338.6819      1.6316535      8706.5914      6657930.2      6752505.7      6797432.5      6423852.5     -448.0635      -2054.4427     -1931.2061    
      9500  -1074.0693      2338.6819      1.6316535      8706.6199      6658418.6      6747639.8      6805345.5      6422270.4     -1067.4652     -1469.2851      3038.4943    
      9600  -1073.7863      2338.6819      1.6316535      8703.0659      6657225.1      6751126.4      6791118.2      6429430.6     -163.08588      3415.9488      4595.3966    
      9700  -1075.3294      2338.6819      1.6316535      8701.0714      6656250.1      6749693.2      6794452.1      6424605.1     -1800.8346     -1642.1737      4615.6756    
      9800  -1076.0215      2338.6819      1.6316535      8694.1036      6651856.5      6739838.1      6797275.1      6418456.3     -2272.7295      522.98503      5533.5105    
      9900  -1075.4121      2338.6819      1.6316535      8698.5173      6655319.4      6743399.3      6797813.6      6424745.4     -259.755       -3158.3053      666.27868    
     10000  -1075.2099      2338.6819      1.6316535      8698.3291      6655341        6731284.6      6803369.5      6431368.8      4084.7907     -2768.8509      931.97052    
     10100  -1074.8879      2338.6819      1.6316535      8696.067       6652728.4      6741042.3      6799886.6      6417256.3     -84.350384      4915.8066     -533.93913    
     10200  -1074.1768      2338.6819      1.6316535      8699.0494      6654643.6      6741944.8      6796932.5      6425053.4      777.89993      3788.7146     -619.53013    
     10300  -1073.7966      2338.6819      1.6316535      8699.7985      6654650.9      6745539.2      6798412.1      6420001.4      1143.939       1105.8642     -582.71495    
     10400  -1073.7706      2338.6819      1.6316535      8703.645       6657389.2      6748521.3      6801257.4      6422389       -4333.5488      229.78264     -2790.7084    
     10500  -1073.8008      2338.6819      1.6316535      8704.6371      6658385.4      6748589        6799549.9      6427017.4      2501.6686      2969.8691     -2405.8393    
     10600  -1075.0754      2338.6819      1.6316535      8706.9218      6659954.9      6746498.8      6795851.8      6437514       -1256.4313     -2641.0658     -709.55212    
     10700  -1073.3044      2338.6819      1.6316535      8705.545       6658624.4      6752732.9      6800117        6423023.2     -1006.9585      552.93732     -928.557      
     10800  -1073.7211      2338.6819      1.6316535      8701.2268      6656175.5      6745701.8      6795530        6427294.5     -616.06874     -1182.986      -1413.567     
     10900  -1074.5335      2338.6819      1.6316535      8700.9253      6656301.4      6747464.6      6802662.4      6418777.2      701.67966      4315.9124      5688.1177    
     11000  -1073.2907      2338.6819      1.6316535      8699.8796      6655380.2      6740795.2      6807638.9      6417706.6      3209.4904     -7819.0342      1794.0602    
     11100  -1073.329       2338.6819      1.6316535      8696.7189      6652822        6742184.1      6792442.9      6423839        2629.7313     -1839.3477     -1540.4567    
     11200  -1073.481       2338.6819      1.6316535      8703.5128      6657523.1      6742421.5      6796568.8      6433579        8255.5076      5277.6166      1155.0561    
     11300  -1075.2556      2338.6819      1.6316535      8699.5043      6655839.3      6742599        6799969.3      6424949.6      6533.3991      3700.202      -43.085137    
     11400  -1073.9303      2338.6819      1.6316535      8699.851       6655814.5      6743956.9      6797184.2      6426302.5     -677.15975     -3737.5934     -1103.9798    
     11500  -1075.1808      2338.6819      1.6316535      8701.1932      6656728.8      6748127.4      6795919.1      6426139.9     -684.04881      627.72469     -1333.8512    
     11600  -1073.3872      2338.6819      1.6316535      8703.766       6657727.8      6746150.7      6804686.5      6422346.3      4787.8283      4624.1239     -1173.1908    
     11700  -1073.9002      2338.6819      1.6316535      8703.7783      6657600.4      6748269.4      6799721.3      6424810.4      2061.8164      61.392143      343.36088    
     11800  -1075.2569      2338.6819      1.6316535      8705.6091      6659840.1      6744987.1      6801574.4      6432958.9      2796.1426     -6372.1309     -3411.7654    
     11900  -1075.1471      2338.6819      1.6316535      8704.1492      6658230.7      6744952.8      6803896.4      6425842.9      1722.499       2634.9421      3179.6314    
     12000  -1075.5943      2338.6819      1.6316535      8700.9349      6655947.6      6746964.1      6804466.3      6416412.5     -2046.7403      4946.6452      2977.1821    
     12100  -1074.0759      2338.6819      1.6316535      8698.0264      6654338.2      6748980.7      6798599.8      6415434.2     -3080.6494      1083.2402     -4480.2166    
     12200  -1074.5489      2338.6819      1.6316535      8698.494       6655229.9      6749667.4      6791389        6424633.4     -5700.1109     -3771.7187     -1783.0825    
     12300  -1076.2134      2338.6819      1.6316535      8698.1753      6655306.9      6743123.5      6801785.5      6421011.6     -3354.8115     -7996.6115      8544.5997    
     12400  -1074.3003      2338.6819      1.6316535      8700.3731      6656242.1      6741697.7      6806294.4      6420734.2      6338.7803      1627.0538      456.17754    
     12500  -1074.5051      2338.6819      1.6316535      8697.751       6654120        6744167.3      6797298.4      6420894.2      5175.5863      448.2529      -1455.6348    
     12600  -1074.7214      2338.6819      1.6316535      8698.9381      6654987        6746980.3      6796330.4      6421650.3      4880.6765     -719.79024     -2045.9356    
     12700  -1075.5099      2338.6819      1.6316535      8703.8859      6658380.8      6744672.6      6804032.6      6426437.3      3589.0459      1780.4465     -1726.3998    
     12800  -1072.997       2338.6819      1.6316535      8704.7599      6658520.9      6750140.9      6782883.5      6442538.3     -2826.232       3131.7225      3642.4964    
     12900  -1074.924       2338.6819      1.6316535      8701.7576      6656483.5      6748529        6804941.4      6415980.2     -6046.8478      2371.0527      2766.2409    
     13000  -1074.4626      2338.6819      1.6316535      8697.9449      6654294.1      6750196.5      6799787.9      6412897.9     -5895.6754     -1048.9416      3032.1913    
     13100  -1074.7396      2338.6819      1.6316535      8696.3643      6653250.9      6748072.7      6800457.5      6411222.4     -2619.7119     -4268.6917      10413.916    
     13200  -1074.9747      2338.6819      1.6316535      8702.3923      6657861.7      6744646.3      6799715.5      6429223.3      1481.3398      5359.4749      227.23033    
     13300  -1075.6438      2338.6819      1.6316535      8700.4891      6656677.4      6745100.8      6797701.8      6427229.5      2272.9045      2009.8562     -6944.4334    
     13400  -1075.9892      2338.6819      1.6316535      8691.7752      6651796.2      6737915.7      6802763        6414710        488.72288      4522.5269     -2892.8488    
     13500  -1075.7237      2338.6819      1.6316535      8691.2826      6651161.5      6738554.5      6797246.3      6417683.6      379.82845      3197.4853     -1873.1308    
     13600  -1074.2647      2338.6819      1.6316535      8697.8068      6654191.7      6745578        6796954.9      6420042.2      1570.5077      3749.3062      3828.5049    
     13700  -1073.3332      2338.6819      1.6316535      8703.0169      6656350.6      6748979.4      6792145.3      6427927       -792.05382      2773.9653      5573.0425    
     13800  -1073.6181      2338.6819      1.6316535      8702.8905      6656288        6743094.4      6800197.2      6425572.3     -567.20663     -2631.9238     -1731.5113    
     13900  -1073.6661      2338.6819      1.6316535      8702.922       6657104.1      6746313.3      6797153.4      6427845.6      2437.3654     -2032.389      -3145.9134    
     14000  -1074.2273      2338.6819      1.6316535      8704.3393      6657899.5      6747409.9      6795954.2      6430334.5      4053.7653      3044.8139     -1902.9098    
     14100  -1074.2363      2338.6819      1.6316535      8706.1822      6659358.1      6748743.3      6794882        6434449        387.55323      3312.4721     -4184.5252    
     14200  -1074.4752      2338.6819      1.6316535      8702.2459      6657240        6751973.3      6792524.3      6427222.4     -965.74634      3129.4021     -1759.8947    
     14300  -1073.959       2338.6819      1.6316535      8701.2527      6656772        6751040.5      6796658.3      6422617.3      1429.941       1609.6305      4518.7903    
     14400  -1074.5565      2338.6819      1.6316535      8700.0674      6656226.2      6746350        6794887.3      6427441.3     -247.10504      1166.1078      7392.6635    
     14500  -1075.2929      2338.6819      1.6316535      8699.0253      6654946.1      6744852.8      6798353.9      6421631.5     -4732.5421      206.05613      4452.9932    
     14600  -1074.7184      2338.6819      1.6316535      8697.9474      6654414        6748418.5      6794457.9      6420365.5     -2519.0145      1356.2768     -2874.4652    
     14700  -1074.8962      2338.6819      1.6316535      8700.4538      6656260.1      6746119.2      6793957.9      6428703.2      2176.0515     -3751.5185      20.253624    
     14800  -1075.5989      2338.6819      1.6316535      8697.7367      6654243.2      6739547.6      6797673.2      6425508.7      1324.5553      178.08536     -1097.9498    
     14900  -1075.0884      2338.6819      1.6316535      8696.8839      6653947.6      6744428        6792228        6425186.7      3359.2456     -3531.8212     -1212.1678    
     15000  -1075.8926      2338.6819      1.6316535      8697.4655      6654686.3      6740066        6799265.6      6424727.2      2282.8487     -44.18338      -1441.6266    
     15100  -1075.0535      2338.6819      1.6316535      8700.3882      6656906.7      6745945.1      6801050.8      6423724.2      5031.9288     -3342.9324     -2136.825     
     15200  -1073.783       2338.6819      1.6316535      8700.3454      6656048.3      6749365.5      6794239.7      6424539.6      3641.8581     -2740.0712     -3028.0847    
     15300  -1073.9198      2338.6819      1.6316535      8705.6662      6657649.6      6743082.7      6800586.2      6429280        2873.3136     -3033.6086     -4018.2981    
     15400  -1072.6052      2338.6819      1.6316535      8712.4659      6661378.1      6752257.8      6797783.6      6434092.9     -1213.3789      1033.062       1032.4373    
     15500  -1073.1296      2338.6819      1.6316535      8704.4756      6656469.9      6748121.3      6798980        6422308.5      3158.832       3207.7812      2742.1103    
     15600  -1074.9244      2338.6819      1.6316535      8705.9222      6658604.1      6747797.7      6794952.9      6433061.6     -850.79991     -9955.324      -430.10881    
     15700  -1074.9542      2338.6819      1.6316535      8703.9436      6657975.2      6746800.5      6798187.3      6428937.8     -3808.8176     -782.16178     -2559.6945    
     15800  -1073.8375      2338.6819      1.6316535      8702.0528      6657024        6749516.6      6796680.9      6424874.3     -2288.2389     -4299.2553     -1060.5695    
     15900  -1074.0512      2338.6819      1.6316535      8700.2555      6656370.1      6740452.8      6799590.2      6429067.3      4079.9184      441.45766      374.25459    
     16000  -1074.8708      2338.6819      1.6316535      8700.6119      6656846        6742426.9      6795108.2      6433003       -1513.7544     -309.51109      3464.6421    
     16100  -1075.4062      2338.6819      1.6316535      8694.8325      6652803.3      6739398.7      6791714.2      6427297        3117.562      -815.04095      678.16182    
     16200  -1077.1315      2338.6819      1.6316535      8696.4907      6655514.8      6741714.3      6790318.4      6434511.7     -3523.9412      1063.3999     -717.55284    
     16300  -1075.4419      2338.6819      1.6316535      8701.0253      6657780.3      6746003.3      6795008.2      6432329.4     -301.01815      3148.1052      869.44185    
     16400  -1074.6031      2338.6819      1.6316535      8706.2972      6660077.5      6752780.6      6794618.2      6432833.7      3948.2732      2173.285      -763.21621    
     16500  -1074.7433      2338.6819      1.6316535      8707.4501      6659703.6      6753995.3      6801250.8      6423864.8     -2901.6724     -537.28825      1928.1605    
     16600  -1072.7991      2338.6819      1.6316535      8710.3476      6661543        6762365.7      6794903        6427360.3      3375.0031      3296.911       341.46363    
     16700  -1073.41        2338.6819      1.6316535      8711.6435      6662616.7      6753444.4      6800971.8      6433434        290.0678       5274.7393      2250.7174    
     16800  -1074.1354      2338.6819      1.6316535      8708.057       6660440.5      6752250.6      6791676.7      6437394.3      5535.4531      1170.614       2536.6172    
     16900  -1074.7865      2338.6819      1.6316535      8696.0637      6653367.8      6743139.3      6799533        6417431.2      1391.7981     -3255.2794     -4778.4746    
     17000  -1074.8762      2338.6819      1.6316535      8695.9512      6653542.2      6736902.2      6795126        6428598.4     -1029.6891      2481.3321     -4825.7012    
     17100  -1076.1106      2338.6819      1.6316535      8698.8748      6655322.2      6736564.9      6796756.5      6432645.4      2033.9868     -926.83533     -1166.3064    
     17200  -1075.5841      2338.6819      1.6316535      8695.6791      6653480        6741300.9      6790146.8      6428992.4      5626.8689     -1678.6455     -3221.3368    
     17300  -1075.8436      2338.6819      1.6316535      8694.7496      6654395.1      6735934.4      6795277        6431973.8      4200.4837     -2995.3802      2359.9835    
     17400  -1076.412       2338.6819      1.6316535      8698.4797      6656181.8      6747814.2      6798400.8      6422330.4      1426.2828     -5718.3891      3503.9379    
     17500  -1073.7085      2338.6819      1.6316535      8702.3649      6657223.8      6752037.9      6796620.5      6423013.1      5507.9363     -4780.6129     -4383.4182    
     17600  -1072.4934      2338.6819      1.6316535      8708.3332      6659514.2      6754925.3      6813109.6      6410507.8     -1625.8623      1823.7909     -222.76091    
     17700  -1073.2719      2338.6819      1.6316535      8707.0345      6658898.2      6752456        6799583.4      6424655.2      1709.2232      116.58549     -3434.2022    
     17800  -1075.426       2338.6819      1.6316535      8703.0222      6657667.9      6750873.7      6801182        6420947.9     -5321.2484      771.36594     -734.15729    
     17900  -1075.1249      2338.6819      1.6316535      8702.7914      6657464.2      6740281.5      6804659.6      6427451.5     -4226.7113     -2379.3189      4283.9939    
     18000  -1074.9885      2338.6819      1.6316535      8701.985       6657177.5      6738835.3      6802727.8      6429969.4     -709.60036      2757.8148     -1084.1967    
     18100  -1076.1443      2338.6819      1.6316535      8701.2718      6657252.1      6740235.8      6795148        6436372.5     -4359.709       19.867389      4636.1217    
     18200  -1077.1241      2338.6819      1.6316535      8695.9178      6653988.2      6734612.9      6806905.4      6420446.1     -1966.5736      8410.2744     -3290.3957    
     18300  -1076.638       2338.6819      1.6316535      8702.7479      6658938.4      6746256.5      6798308.3      6432250.5      4841.4917      13.103846     -2092.398     
     18400  -1075.8699      2338.6819      1.6316535      8694.0746      6653065.8      6740032.5      6795986.9      6423178.1      9540.4877     -178.87424      2742.5124    
     18500  -1078.3635      2338.6819      1.6316535      8696.5357      6655972.7      6745804.2      6799570        6422543.8      5813.3367     -1250.1005     -2155.1235    
     18600  -1076.0132      2338.6819      1.6316535      8698.7813      6656804        6751512.9      6802421.2      6416477.9      4680.75       -1160.597      -1767.5306    
     18700  -1074.0233      2338.6819      1.6316535      8704.6584      6659150.8      6751723.1      6802479.4      6423249.8     -2424.1372      1848.9704      249.93304    
     18800  -1072.9992      2338.6819      1.6316535      8705.1369      6658210.2      6751185.4      6804143.1      6419301.9     -5983.7469     -147.13841     -1714.5822    
     18900  -1075.0912      2338.6819      1.6316535      8703.1422      6656934        6748826.5      6797960.6      6424015       -1028.9686      4820.7219     -1155.2001    
     19000  -1075.8582      2338.6819      1.6316535      8700.3905      6655462.4      6741523.7      6794430.1      6430433.5     -4995.6045     -478.15151     -3984.9516    
     19100  -1075.1594      2338.6819      1.6316535      8700.7553      6655852.3      6738491.4      6795476.9      6433588.7      3996.4846      1802.6427      2193.9754    
     19200  -1074.0516      2338.6819      1.6316535      8696.3862      6652938.2      6736960.6      6801770        6420084        1529.1577     -596.37557      763.03024    
     19300  -1074.6942      2338.6819      1.6316535      8700.9812      6655905.3      6740083.6      6797893.3      6429738.9      218.30896     -2307.7095      2945.9162    
     19400  -1075.7199      2338.6819      1.6316535      8701.6437      6657166.6      6739494.9      6801626.4      6430378.5     -5317.5978      759.07584     -404.18131    
     19500  -1074.7028      2338.6819      1.6316535      8702.0147      6657469.4      6748296.9      6798503.9      6425607.3     -2343.5289      1906.9975     -6534.5992    
     19600  -1073.9456      2338.6819      1.6316535      8703.581       6658170.7      6747680.2      6801487.3      6425344.4     -1434.2341     -1650.9633     -3314.3049    
     19700  -1074.3779      2338.6819      1.6316535      8704.7993      6659571.5      6748758.5      6803429.2      6426526.8     -2896.5282     -3103.4674      4072.1304    
     19800  -1075.4555      2338.6819      1.6316535      8701.8773      6657743.1      6752758        6803462.2      6417009       -1553.229      -1413.9232     -3721.4174    
     19900  -1075.9352      2338.6819      1.6316535      8700.2672      6657762.5      6745975.5      6798589.8      6428722.2      2313.8891     -1532.8361     -669.06434    
     20000  -1076.1335      2338.6819      1.6316535      8698.5821      6656293.4      6743220.8      6796073.2      6429586.3      3309.4336     -299.97152      6443.9104    
     20100  -1074.3497      2338.6819      1.6316535      8701.6833      6657284.9      6742182.7      6798100.7      6431571.2      1672.2852      4259.2342      4195.5955    
     20200  -1074.3516      2338.6819      1.6316535      8703.8293      6657969.7      6748588.8      6797732.6      6427587.7      1482.3353     -89.090009     -807.0989     
     20300  -1074.781       2338.6819      1.6316535      8702.2255      6656797.6      6743981.5      6796850.5      6429560.9     -338.29169     -5041.3289     -2308.7887    
     20400  -1074.1345      2338.6819      1.6316535      8701.5524      6657063.4      6746896        6796552.8      6427741.3     -5458.1688      563.43121      3106.7281    
     20500  -1075.9073      2338.6819      1.6316535      8700.9408      6657200.6      6750603.2      6793862.8      6427135.7     -2045.3044      518.66322     -578.27298    
     20600  -1075.5939      2338.6819      1.6316535      8699.9907      6655894.3      6743095.8      6801900.3      6422686.7     -2443.4975      3482.1289      2590.5765    
     20700  -1075.3352      2338.6819      1.6316535      8703.1388      6657589.7      6745136.8      6806985.6      6420646.8     -3234.3852     -2868.3833      58.674885    
     20800  -1076.7282      2338.6819      1.6316535      8699.9115      6656292.7      6751864.8      6799388.1      6417625.3     -5312.5663     -3089.1276     -1014.0484    
     20900  -1075.1724      2338.6819      1.6316535      8697.5186      6656140.3      6745008.7      6798522        6424890.3      1622.5284     -343.16165     -1987.8672    
     21000  -1076.1758      2338.6819      1.6316535      8700.3846      6657107.4      6740115.3      6799666.9      6431540.1      3570.119      -7270.974       4202.3831    
     21100  -1075.1944      2338.6819      1.6316535      8705.1296      6659487.9      6737354.9      6801699.7      6439408.9      3590.9054     -2110.0393      2693.1369    
     21200  -1074.1993      2338.6819      1.6316535      8704.2429      6657756.8      6744195.9      6798138.4      6430936.2      5092.9255      654.41796      536.235      
     21300  -1074.3292      2338.6819      1.6316535      8700.6027      6656107.9      6745587.1      6802002.8      6420733.7     -676.10732     -114.44047     -987.90363    
     21400  -1074.7051      2338.6819      1.6316535      8694.8357      6653168.9      6744934.7      6799031.8      6415540.1     -2981.4384      1954.6311      3790.7351    
     21500  -1074.3847      2338.6819      1.6316535      8697.9507      6654032.6      6754411        6796566        6411120.8     -3840.5549      4267.6703      469.38465    
     21600  -1074.4639      2338.6819      1.6316535      8704.5587      6657818.8      6750579.2      6801489.4      6421387.7     -5771.6534     -1158.8308     -2846.1245    
     21700  -1074.1651      2338.6819      1.6316535      8702.8142      6656075.7      6752921.7      6797406.2      6417899.2     -9072.7765     -1163.1288      4788.973     
     21800  -1075.3628      2338.6819      1.6316535      8701.248       6656569.9      6740219.7      6802032.9      6427456.9     -617.40345     -3595.8576      1357.8229    
     21900  -1075.8527      2338.6819      1.6316535      8699.2758      6655815.9      6743896.8      6791593.1      6431957.9      6219.1029     -2685.5698      618.49643    
     22000  -1075.4069      2338.6819      1.6316535      8697.2178      6654194.9      6739037.6      6799656.8      6423890.2      1134.1909      104.81255      243.85415    
     22100  -1075.7047      2338.6819      1.6316535      8696.1345      6653698        6735539.6      6797570.9      6427983.6      1588.9115     -2069.9513     -216.98116    
     22200  -1074.894       2338.6819      1.6316535      8697.9324      6654890.5      6749446.1      6798397.5      6416827.9     -2722.8023     -433.17772      3028.3482    
     22300  -1075.8151      2338.6819      1.6316535      8693.139       6652739        6746983.9      6800588.9      6410644.1     -718.012       -4387.3543     -2706.2088    
     22400  -1076.3705      2338.6819      1.6316535      8698.1634      6656763.8      6752821.9      6796253.7      6421215.7     -3719.6868      1128.5408      3672.3087    
     22500  -1074.4732      2338.6819      1.6316535      8702.4883      6658164.5      6748822        6801959.1      6423712.4     -509.21804     -2188.6111      1151.3129    
     22600  -1074.9426      2338.6819      1.6316535      8703.3266      6657638        6742187.7      6804295.3      6426430.8      302.26147      1326.7462      1511.4197    
     22700  -1073.5224      2338.6819      1.6316535      8700.9931      6655386.4      6752914.2      6798664.3      6414580.7      47.927265      2754.2504      5030.0244    
     22800  -1073.2473      2338.6819      1.6316535      8703.1238      6657031.1      6746874        6799834.4      6424384.9      5392.5351     -1886.3317      1811.4031    
     22900  -1074.7444      2338.6819      1.6316535      8695.235       6652299.5      6747675.4      6797340.2      6411882.8      6418.2712      769.85699     -4295.1708    
     23000  -1074.5022      2338.6819      1.6316535      8701.5736      6656686.2      6746048.6      6799606.7      6424403.2      1748.3595     -2229.4951      3844.9307    
     23100  -1074.9502      2338.6819      1.6316535      8699.4219      6655214.6      6746300.5      6795719.6      6423623.8     -2759.5443      3354.9334     -457.79097    
     23200  -1075.5409      2338.6819      1.6316535      8705.4505      6659404.2      6745684.9      6794708.6      6437819       -3861.031      -4686.5366      3199.8905    
     23300  -1076.0563      2338.6819      1.6316535      8701.8167      6658029.4      6742249.4      6800471.5      6431367.3     -3881.8923     -804.80689     -1682.668     
     23400  -1074.7156      2338.6819      1.6316535      8699.2793      6656037.1      6748779.8      6796424        6422907.6     -3560.8946      142.20368     -2460.1483    
     23500  -1074.1939      2338.6819      1.6316535      8706.2168      6660016.2      6746893.5      6795562.6      6437592.5      18.898168     -315.01447     -437.51178    
     23600  -1073.8963      2338.6819      1.6316535      8707.6961      6660372        6751273.6      6796766.8      6433075.7     -1129.1104      3222.96       -4960.1205    
     23700  -1075.4159      2338.6819      1.6316535      8708.0066      6660379.8      6754536.7      6801757.4      6424845.3     -1277.1675      1324.9273     -7588.8366    
     23800  -1074.9345      2338.6819      1.6316535      8705.4077      6659645.5      6742802.2      6803297.8      6432836.5     -3590.6979     -3799.7007      568.90265    
     23900  -1075.848       2338.6819      1.6316535      8701.1526      6657077.4      6744189.1      6795397.7      6431645.5     -4020.269      -4227.4925      363.44079    
     24000  -1076.2055      2338.6819      1.6316535      8701.8222      6657444.2      6744661.6      6797840.6      6429830.4      2039.5698      2040.0019     -2634.529     
     24100  -1075.4385      2338.6819      1.6316535      8697.7963      6655210.8      6734636.4      6797700.3      6433295.7      4247.7964     -2205.8217      2565.7494    
     24200  -1075.3816      2338.6819      1.6316535      8698.8385      6656799        6744593.2      6794728        6431075.9      1440.8082      1381.0235     -3630.887     
     24300  -1076.4713      2338.6819      1.6316535      8697.261       6655325.9      6747043        6793798.7      6425136        1332.135       632.10551      102.86891    
     24400  -1074.5286      2338.6819      1.6316535      8704.4141      6658869.5      6742831.1      6803992.1      6429785.2      2194.8576     -3742.0603     -1530.4115    
     24500  -1074.2004      2338.6819      1.6316535      8706.6854      6659478.6      6753731.2      6799727.7      6424977        278.97068     -4853.5285     -3047.8225    
     24600  -1074.1778      2338.6819      1.6316535      8704.4731      6658232.4      6744974.1      6806064.9      6423658.2     -1739.8378      2573.3051     -3459.7327    
     24700  -1075.872       2338.6819      1.6316535      8699.2354      6655743.1      6754702.8      6800713.2      6411813.3     -3287.8794     -974.91525     -24.801879    
     24800  -1076.1825      2338.6819      1.6316535      8698.4615      6655524.3      6749197.3      6793731.5      6423644        1626.1763     -1955.9499     -1773.1993    
     24900  -1076.3147      2338.6819      1.6316535      8696.2436      6653199.1      6743637        6796116.6      6419843.6      5044.9592      3116.7898     -1458.5192    
     25000  -1075.0648      2338.6819      1.6316535      8697.5642      6653492        6735751.3      6804638.4      6420086.3      3818.0786     -4387.267       1084.4158    
     25100  -1075.4102      2338.6819      1.6316535      8695.8879      6653025.3      6744193.5      6792654.6      6422227.8      7770.5604     -2701.8069     -5754.3703    
     25200  -1075.6073      2338.6819      1.6316535      8694.8695      6653042.9      6742042.8      6796484        6420601.8      7320.2927      326.05342      5277.3836    
     25300  -1074.5045      2338.6819      1.6316535      8703.1903      6658225.6      6747123.1      6798364.9      6429188.8      1112.2975      1568.0817     -5727.7604    
     25400  -1074.7918      2338.6819      1.6316535      8704.4827      6659100.4      6754076.5      6796014.5      6427210.1     -2033.6945     -2965.7466     -4377.6621    
     25500  -1075.3188      2338.6819      1.6316535      8700.2797      6657063.2      6751678.7      6796543.6      6422967.4     -1099.4713      3281.765      -776.69425    
     25600  -1076.5394      2338.6819      1.6316535      8703.7646      6659823.1      6748575.1      6807403.2      6423491       -2488.6475      3204.442      -8.7825259    
     25700  -1075.3833      2338.6819      1.6316535      8703.8457      6658829.1      6753405.2      6798458.7      6424623.4     -2452.5375     -1551.1479      4400.9505    
     25800  -1073.7367      2338.6819      1.6316535      8706.7943      6659550.6      6757753.1      6794807.3      6426091.5      2390.5783     -5870.4704     -1282.658     
     25900  -1074.8744      2338.6819      1.6316535      8704.5879      6657437.7      6757279.8      6799013.7      6416019.6      1094.9483     -4370.4407      640.94527    
     26000  -1073.9107      2338.6819      1.6316535      8704.5576      6657990.9      6747212.5      6801965.9      6424794.3      2318.6807     -11164.394      3806.3136    
     26100  -1073.9308      2338.6819      1.6316535      8698.1321      6654094.5      6731566.5      6796505.3      6434211.6      5612.8203     -2708.5387     -5021.4284    
     26200  -1075.6451      2338.6819      1.6316535      8694.0807      6651635.1      6741171.5      6796152.7      6417581.2      6811.1251      3091.6323     -2070.3311    
     26300  -1074.8504      2338.6819      1.6316535      8698.4455      6654306        6741694        6797476.6      6423747.6      3982.2467      428.27093     -7995.7768    
     26400  -1074.6038      2338.6819      1.6316535      8697.7406      6653557        6743939.1      6795036.4      6421695.5     -2947.4963     -1611.6334     -5641.7069    
     26500  -1074.0268      2338.6819      1.6316535      8703.6561      6657880.6      6747686.9      6791700.5      6434254.3     -4923.7322     -343.92436     -448.77263    
     26600  -1074.6363      2338.6819      1.6316535      8710.0793      6662204.2      6757189.2      6796424        6432999.5     -5284.3191      3883.6359     -3549.227     
     26700  -1074.6712      2338.6819      1.6316535      8708.9256      6661210.1      6761798.4      6794163        6427668.9     -1931.8178     -785.09325     -585.25613    
     26800  -1073.1802      2338.6819      1.6316535      8708.0894      6660396.7      6764126        6797808.2      6419255.8      607.78383     -5906.734       2245.142     
     26900  -1074.1497      2338.6819      1.6316535      8706.6368      6659833.5      6758987.4      6800631.3      6419881.7      4571.925       822.8242       1071.6818    
     27000  -1075.7208      2338.6819      1.6316535      8698.7217      6654788.7      6752527.6      6800559.5      6411278.9      1678.3564     -1630.028      -4914.8137    
     27100  -1073.0016      2338.6819      1.6316535      8698.4822      6653932.3      6751620.2      6792626.8      6417550        4444.5672      3565.3797      1527.1032    
     27200  -1075.2836      2338.6819      1.6316535      8695.1823      6651966.3      6733432        6801221.4      6421245.5      2332.5085      2718.8877      2712.4292    
     27300  -1074.4619      2338.6819      1.6316535      8693.241       6651189        6728323.5      6801331        6423912.5     -860.99133     -2096.799      -1510.4605    
     27400  -1074.4633      2338.6819      1.6316535      8693.8818      6652085.5      6739441.7      6791786.5      6425028.3     -1920.9033      217.34427     -779.42804    
     27500  -1074.9216      2338.6819      1.6316535      8696.9199      6653931.6      6745895.9      6797754.7      6418144.1      3046.5188     -4294.3528     -1411.9304    
     27600  -1074.4361      2338.6819      1.6316535      8703.801       6658919        6751396.6      6804273.9      6421086.4     -16.224948      3909.6157     -6862.2957    
     27700  -1075.0459      2338.6819      1.6316535      8703.2585      6659899.6      6759238.6      6796835.5      6423624.6     -2930.735      -2853.6244     -3080.1443    
     27800  -1074.4218      2338.6819      1.6316535      8705.3242      6660115.9      6763016.5      6804248.5      6413082.5      787.43671     -1584.757      -989.0825     
     27900  -1073.23        2338.6819      1.6316535      8706.3378      6659163.5      6764892.1      6797388.5      6415209.8      3640.0004     -3654.1707      2051.1016    
     28000  -1074.6487      2338.6819      1.6316535      8708.4332      6660285        6757849.1      6802152.7      6420853.1      4041.3978     -324.08537     -91.113732    
     28100  -1074.0632      2338.6819      1.6316535      8707.6556      6660108.3      6754708.7      6796068.4      6429547.8      5088.7311     -3667.6889      2313.3137    
     28200  -1075.7881      2338.6819      1.6316535      8701.8545      6657510.1      6741333.3      6799377.9      6431819       -194.56792      1278.8815      390.40472    
     28300  -1075.524       2338.6819      1.6316535      8695.1443      6652968        6724256.4      6803779.9      6430867.8      1665.2992      2566.5759      369.75812    
     28400  -1075.45        2338.6819      1.6316535      8690.1556      6649709.3      6733062.4      6797994.2      6418071.4     -1555.5095      2006.0767      2494.4468    
     28500  -1076.0071      2338.6819      1.6316535      8690.8433      6650256.9      6731625        6794344.4      6424801.3     -1889.6495     -368.77266     -303.37627    
     28600  -1075.1892      2338.6819      1.6316535      8693.7423      6652143.9      6735417.5      6799189        6421825.2      25.899441     -1970.1528      2268.9016    
     28700  -1074.6325      2338.6819      1.6316535      8697.5755      6654943.8      6745326.3      6805679.4      6413825.7     -4147.5403      2245.9258      479.22291    
     28800  -1076.8185      2338.6819      1.6316535      8696.167       6654873.3      6754133.8      6798789.8      6411696.2      2145.0579      1716.6558     -686.38396    
     28900  -1077.4915      2338.6819      1.6316535      8697.9239      6657140.2      6756791.9      6797519.2      6417109.6      2812.3411     -1130.3867      1199.22      
     29000  -1076.1006      2338.6819      1.6316535      8701.7239      6658404.7      6752384.2      6793454        6429375.9     -172.87845      5128.7767     -2916.9854    
     29100  -1073.6182      2338.6819      1.6316535      8702.9245      6656964.4      6751070        6793431.6      6426391.6     -834.10715      69.32306      -4842.7441    
     29200  -1074.4988      2338.6819      1.6316535      8705.7677      6658765.3      6747478.4      6799254.2      6429563.3      6458.2719      2926.1308     -5180.5777    
     29300  -1074.8777      2338.6819      1.6316535      8700.3533      6655814.4      6748599        6797339.9      6421504.4     -437.90797      1866.0295      4038.5615    
     29400  -1075.7549      2338.6819      1.6316535      8698.7656      6655347.9      6742049.2      6804820.6      6419174       -5253.1832     -2074.0954     -3757.7528    
     29500  -1074.6474      2338.6819      1.6316535      8693.3557      6651616.4      6738752.7      6797490.5      6418605.9     -466.28456     -2897.9554      1533.0351    
     29600  -1074.624       2338.6819      1.6316535      8694.588       6652253.1      6737348.7      6793918        6425492.5     -1700.9366     -2262.167       5758.5783    
     29700  -1074.134       2338.6819      1.6316535      8697.3199      6653966.7      6749570.9      6792677.1      6419652.2      1474.4585     -491.97929     -3896.0779    
     29800  -1076.1706      2338.6819      1.6316535      8695.0286      6654308.4      6747975.9      6795561        6419388.4      3333.7825     -1813.1078     -628.85308    
     29900  -1075.4551      2338.6819      1.6316535      8702.4183      6659339.4      6747999.6      6796075.2      6433943.2      2110.1701     -3085.0696      2224.8039    
     30000  -1074.5364      2338.6819      1.6316535      8708.4296      6661628.8      6757383.6      6795636.7      6431866.1      6357.9673     -2640.3074      3731.5154    
     30100  -1073.0174      2338.6819      1.6316535      8707.6273      6659466.7      6757217.8      6796164.8      6425017.4      278.21612     -4190.9074      1086.5861    
     30200  -1074.1194      2338.6819      1.6316535      8708.4402      6660513        6750854.5      6800009.2      6430675.2      1091.5903      2478.7512     -483.67303    
     30300  -1075.3889      2338.6819      1.6316535      8706.7518      6660309.5      6752278.2      6794682.6      6433967.6     -1360.9599     -2188.1731     -3705.5977    
     30400  -1074.8609      2338.6819      1.6316535      8701.6235      6656462.3      6750063.9      6795969.6      6423353.3     -2338.1823     -2034.0422      273.12371    
     30500  -1075.4608      2338.6819      1.6316535      8697.8511      6653854.5      6739862.1      6800591.4      6421109.9     -5359.7623     -1270.419       2646.6189    
     30600  -1075.096       2338.6819      1.6316535      8700.6948      6656368        6747410.5      6798348.6      6423345       -2651.6879     -2495.6952      2288.0276    
     30700  -1075.891       2338.6819      1.6316535      8691.4605      6650919.8      6737292.9      6797627.5      6417839        2285.0277      3036.0806      1889.8616    
     30800  -1074.4308      2338.6819      1.6316535      8696.9528      6653853.6      6736638        6801597.7      6423325.1      7070.919      -581.01233     -2543.7557    
     30900  -1074.3672      2338.6819      1.6316535      8706.2063      6659631.7      6744104.1      6802554.5      6432236.4      8213.9169      3879.4039     -507.26069    
     31000  -1074.5859      2338.6819      1.6316535      8699.1702      6654578.3      6747515.1      6800251.8      6415968        7296.6864      1248.608      -3243.5142    
     31100  -1075.3338      2338.6819      1.6316535      8702.607       6657470.9      6746392.2      6801350.5      6424669.9      3538.0026      1945.4494     -4050.9859    
     31200  -1074.4631      2338.6819      1.6316535      8703.179       6657686.5      6753404.2      6798282.3      6421373        1616.5209      990.40126     -7464.6063    
     31300  -1074.4535      2338.6819      1.6316535      8706.0855      6659394.6      6753600.2      6795755.3      6428828.3     -776.1017      -6575.5831     -1396.8525    
     31400  -1073.89        2338.6819      1.6316535      8705.3451      6658831.6      6752335.9      6797505.7      6426653.3     -1322.2974     -2474.0955      3078.3701    
     31500  -1075.4105      2338.6819      1.6316535      8702.3386      6657457.9      6748057.1      6796683.2      6427633.5      3149.7117     -1205.0494     -1972.4092    
     31600  -1075.8117      2338.6819      1.6316535      8701.0188      6656786.6      6745465.1      6798270.1      6426624.6      808.90328      1316.0929     -2456.9274    
     31700  -1074.9596      2338.6819      1.6316535      8700.8079      6656101.2      6748612.5      6798265.7      6421425.3      4964.1987     -1400.9341     -5885.8647    
     31800  -1075.371       2338.6819      1.6316535      8700.4355      6655509.1      6736238.7      6801220        6429068.6      964.1034       2166.3719     -607.09757    
     31900  -1075.3669      2338.6819      1.6316535      8705.7659      6659578.4      6741012.3      6799110.7      6438612.1      1204.203      -1285.4873      21.389238    
     32000  -1075.3881      2338.6819      1.6316535      8705.9727      6659944.7      6744598.9      6797750.5      6437484.7     -617.62962      24.604059     -1899.4161    
     32100  -1073.6878      2338.6819      1.6316535      8700.484       6655963.9      6744405.4      6795086.1      6428400.2     -3143.2031     -696.27563      184.43227    
     32200  -1074.7184      2338.6819      1.6316535      8703.5362      6657793.2      6756335.3      6796238.2      6420806.1     -2926.383       1245.9862      877.51861    
     32300  -1074.4121      2338.6819      1.6316535      8703.481       6657560.8      6749469.3      6794435.7      6428777.6     -801.42365      5091.0496      595.18704    
     32400  -1074.1469      2338.6819      1.6316535      8703.1995      6657544.7      6748646.6      6803068.3      6420919.3     -337.84126     -4485.7642      684.93541    
     32500  -1074.0176      2338.6819      1.6316535      8702.0566      6656887.9      6747772.8      6801847.6      6421043.2     -3113.659      -1667.0669      5495.5487    
     32600  -1074.1847      2338.6819      1.6316535      8700.4672      6656195.5      6748959.3      6795754.7      6423872.4     -607.6135      -1747.7276      961.49207    
     32700  -1074.0821      2338.6819      1.6316535      8704.3831      6658208.2      6747832        6802431.1      6424361.6      4126.2298     -766.62133     -7064.553     
     32800  -1074.5885      2338.6819      1.6316535      8696.7971      6652982.4      6742316.5      6796124.4      6420506.3      86.543998     -4699.194      -2265.5573    
     32900  -1075.263       2338.6819      1.6316535      8702.1847      6656850        6740122.5      6800098.4      6430329.1      5052.0426     -2198.5935      3415.052     
     33000  -1073.2631      2338.6819      1.6316535      8700.9671      6655746.3      6746218.2      6796115.7      6424904.9     -542.93057      1079.2753      5068.0354    
     33100  -1074.3589      2338.6819      1.6316535      8697.8909      6654477.8      6745265.4      6798041.4      6420126.7     -1242.3062      2573.0667     -2736.833     
     33200  -1076.014       2338.6819      1.6316535      8699.6302      6655760.5      6748804.9      6794699.7      6423776.9     -2256.5114      5444.9995      854.15594    
     33300  -1074.829       2338.6819      1.6316535      8704.1669      6658215.7      6750564.4      6800745        6423337.8      524.94228     -2772.9308      2938.3962    
     33400  -1073.6956      2338.6819      1.6316535      8704.6045      6658080.7      6758634.2      6798694.6      6416913.3      4581.3541     -3085.4077     -394.66793    
     33500  -1074.9447      2338.6819      1.6316535      8702.7635      6657309.7      6752769.8      6795276.7      6423882.6      5460.0304     -2754.6427     -2154.7448    
     33600  -1073.8208      2338.6819      1.6316535      8700.2337      6656471.9      6750677.2      6790761.8      6427976.7      148.13998     -2230.8395     -4822.1359    
     33700  -1075.3622      2338.6819      1.6316535      8699.57        6656119.7      6748277.1      6800708.9      6419373.2     -2616.0933     -1584.3515     -5018.4874    
     33800  -1076.3733      2338.6819      1.6316535      8703.7301      6658692.6      6747024.9      6801778.2      6427274.6     -7306.0997     -1733.1947      2520.3667    
     33900  -1075.1559      2338.6819      1.6316535      8704.1476      6658190.3      6753385.5      6789794.7      6431390.8     -3367.4565     -5113.5092      3746.5541    
     34000  -1074.5586      2338.6819      1.6316535      8697.8879      6653896        6746893.8      6796196.5      6418597.8      2792.6055     -2104.577      -602.82932    
     34100  -1074.9329      2338.6819      1.6316535      8698.7549      6654981.3      6745193.8      6798677.8      6421072.2      928.49457      303.20346     -1263.8817    
     34200  -1075.612       2338.6819      1.6316535      8697.394       6654600.3      6746386.9      6799585.3      6417828.9      7116.2987      3360.9416      457.69138    
     34300  -1075.9557      2338.6819      1.6316535      8697.5718      6654897.8      6744502.1      6798174.8      6422016.6      4918.2771     -1264.418      -3274.3133    
     34400  -1075.328       2338.6819      1.6316535      8696.2127      6653683.6      6749908.2      6793934.7      6417208       -3396.8029     -453.58541     -3262.151     
     34500  -1075.1957      2338.6819      1.6316535      8695.6601      6653017.6      6746088.7      6800718.7      6412245.5     -8855.6175      1563.4061      1150.1655    
     34600  -1075.864       2338.6819      1.6316535      8696.3672      6653811.7      6739499        6801335.8      6420600.2     -7661.6464     -1360.9715      2347.0666    
     34700  -1074.5469      2338.6819      1.6316535      8693.3645      6652127.7      6741443.5      6795594.7      6419345.1     -1273.5935     -2585.219      -2359.9951    
     34800  -1075.0191      2338.6819      1.6316535      8699.6881      6656182.2      6743296.5      6797644.2      6427606       -1698.6066      300.62764      1311.5018    
     34900  -1074.0068      2338.6819      1.6316535      8699.7861      6655358.9      6744298.4      6794445.2      6427333.1      6339.9997     -730.41877     -2782.6039    
     35000  -1074.9858      2338.6819      1.6316535      8699.3678      6655102.6      6736809.9      6807552.1      6420945.9      6096.3264      522.29978     -3223.5734    
     35100  -1075.2154      2338.6819      1.6316535      8699.1457      6655720.3      6746167.4      6803574.7      6417418.8      1367.203      -2021.0544      6237.0968    
     35200  -1075.213       2338.6819      1.6316535      8700.0401      6656375        6743479.7      6802158.7      6423486.6      2852.0053      126.01136      1851.43      
     35300  -1074.5569      2338.6819      1.6316535      8700.7156      6655964.7      6751025        6794739.5      6422129.8     -4519.9178     -850.63935     -2556.6951    
     35400  -1073.1556      2338.6819      1.6316535      8707.3562      6659207.8      6749777.9      6795885.2      6431960.4     -4123.9394      1271.1388      1683.1179    
     35500  -1073.3545      2338.6819      1.6316535      8706.2559      6658299.5      6744333.2      6802038.3      6428526.9     -1413.9803      1699.8061      846.25602    
     35600  -1073.7359      2338.6819      1.6316535      8701.9326      6656420.6      6747391.5      6797375.3      6424495.1     -1620.0988      3498.069       2939.4235    
     35700  -1075.0473      2338.6819      1.6316535      8700.7995      6656388.2      6740528.1      6802846.8      6425789.6      3883.8705      3202.3349      347.16906    
     35800  -1074.381       2338.6819      1.6316535      8698.8964      6654847.1      6742066.8      6801691.6      6420782.7      4180.2433      4337.5804     -2238.8013    
     35900  -1073.227       2338.6819      1.6316535      8698.309       6654321.5      6745159.4      6790093.6      6427711.6     -942.6644       4783.2037     -672.64691    
     36000  -1074.3005      2338.6819      1.6316535      8698.2553      6654778.1      6740391.2      6800627.6      6423315.4      2333.9795     -642.74357     -104.63134    
     36100  -1076.9768      2338.6819      1.6316535      8695.5696      6654726.7      6742416.4      6800290.8      6421473        1179.0166      2069.503      -1817.6216    
     36200  -1075.0807      2338.6819      1.6316535      8696.6194      6655067.5      6744539        6792146.1      6428517.5     -1517.3416      2061.5146     -516.17058    
     36300  -1076.038       2338.6819      1.6316535      8703.2773      6658238.1      6743492.7      6800610.8      6430610.8     -1200.1049      1782.5127      2644.2911    
     36400  -1073.1585      2338.6819      1.6316535      8706.279       6658657.1      6750200.8      6797741.3      6428029.2      3190.4421     -1577.624      -1027.6883    
     36500  -1073.3374      2338.6819      1.6316535      8707.3166      6658685.6      6757094.2      6800915.2      6418047.3     -3470.6207      4013.3754      1372.4075    
     36600  -1074.3593      2338.6819      1.6316535      8705.4427      6659440.5      6751168.7      6795932.2      6431220.4      654.1592       2004.093      -802.0482     
     36700  -1074.8611      2338.6819      1.6316535      8704.3981      6658851.8      6747933.8      6798167.2      6430454.5     -2550.7972     -3223.9611     -4431.974     
     36800  -1075.7508      2338.6819      1.6316535      8698.5427      6655083.9      6744569.9      6790682.8      6429999.1      4874.4288     -3450.1187      1246.3699    
     36900  -1074.7176      2338.6819      1.6316535      8696.918       6654321.7      6738101.9      6796666.5      6428196.6     -2294.9429     -1786.0906     -242.53205    
     37000  -1075.2972      2338.6819      1.6316535      8697.1701      6654395.1      6743350.6      6795074.9      6424759.7      1584.691       2976.8629     -1435.3311    
     37100  -1073.6874      2338.6819      1.6316535      8695.3255      6652907.7      6735514.5      6805971        6417237.6     -1821.0169     -1116.6242     -74.770639    
     37200  -1075.2404      2338.6819      1.6316535      8694.5553      6653063.3      6741034.1      6796287.6      6421868.2     -2804.3312     -3389.1346     -1915.3233    
     37300  -1077.0079      2338.6819      1.6316535      8694.6348      6653235.2      6744869.7      6797517.9      6417318       -4270.8156     -1932.7164      3851.5882    
     37400  -1074.4803      2338.6819      1.6316535      8700.8759      6656755.4      6743890.6      6798157.1      6428218.4     -10087.535      4142.4106     -829.68818    
     37500  -1074.2129      2338.6819      1.6316535      8707.308       6659845.9      6747176.5      6796880.9      6435480.1     -1794.8829      1152.2868     -475.23115    
     37600  -1074.0813      2338.6819      1.6316535      8713.4963      6662867.1      6746930.6      6806905.3      6434765.4      211.99822      1078.0229      4272.8431    
     37700  -1074.1387      2338.6819      1.6316535      8701.6887      6655822.3      6745040.2      6800586.2      6421840.4      4643.4341      3242.5032     -3109.5456    
     37800  -1074.4479      2338.6819      1.6316535      8704.1314      6657980.9      6748972.4      6804825.1      6420145.3      2743.0236     -1760.397       1615.6452    
     37900  -1075.3278      2338.6819      1.6316535      8698.8412      6654799.4      6752013.5      6799103.6      6413281.1     -114.2797      -2232.2997      3394.9025    
     38000  -1073.9711      2338.6819      1.6316535      8697.4258      6654086.3      6741311.4      6796695.4      6424252.3      2792.5234      1701.6668      963.25638    
     38100  -1073.7123      2338.6819      1.6316535      8696.6643      6653243.3      6735703.8      6802315.7      6421710.5      2428.7776     -1115.357      -1148.6362    
     38200  -1075.0923      2338.6819      1.6316535      8695.4541      6653256.4      6739325.9      6796859        6423584.5      1.7488895     -336.83273      3209.5732    
[...]
    189600  -1073.7369      2338.6819      1.6316535      8704.1609      6657162.9      6748919.4      6794266.1      6428303.2      5702.1253      2890.5928      1821.7166    
    189700  -1074.0307      2338.6819      1.6316535      8702.8367      6656995.5      6745434        6803745.4      6421807        5144.1453     -2352.2188      1897.8208    
    189800  -1074.7055      2338.6819      1.6316535      8699.1965      6654544.9      6744574.2      6798790        6420270.5      2648.0411     -1784.389      -4859.5902    
    189900  -1075.2678      2338.6819      1.6316535      8700.4662      6655824.7      6746092.5      6802586.6      6418795.1     -2102.134      -2469.0853     -1997.7695    
    190000  -1075.9602      2338.6819      1.6316535      8703.9303      6658260.3      6752044.6      6800543.3      6422192.9     -5530.3649     -1782.433       1641.0275    
    190100  -1074.4869      2338.6819      1.6316535      8705.8287      6659891.8      6751291        6798299.3      6430085       -12121.129      1214.5999     -1664.3156    
    190200  -1074.6342      2338.6819      1.6316535      8695.9989      6653714.9      6748327        6797749.7      6415068.1     -525.20633     -2101.3246      3915.7726    
    190300  -1076.3773      2338.6819      1.6316535      8693.8555      6652733.7      6750816.9      6796302.5      6411081.7     -3714.3791      5199.4519      136.81261    
    190400  -1075.2141      2338.6819      1.6316535      8702.1649      6657610.1      6743617.8      6799263.2      6429949.3      3230.8399      1172.6639     -2120.6205    
    190500  -1074.8272      2338.6819      1.6316535      8703.1778      6657117        6739452.7      6806944.8      6424953.4      3353.4831     -682.72147      230.41718    
    190600  -1073.3801      2338.6819      1.6316535      8703.8949      6656832.5      6745262.5      6798822.9      6426412.2      545.13402      331.02348     -2213.5957    
    190700  -1073.9871      2338.6819      1.6316535      8696.3257      6653157.8      6742454.8      6800398.8      6416619.9     -3216.5546      1787.8379      959.25459    
    190800  -1074.7698      2338.6819      1.6316535      8697.4669      6654074.4      6745376        6798928.9      6417918.2     -796.66983      5712.319       6000.6999    
    190900  -1074.3982      2338.6819      1.6316535      8702.4608      6657030.5      6752928.3      6799368.1      6418795.1      1248.5846      2179.1028     -1715.1241    
    191000  -1075.9326      2338.6819      1.6316535      8703.7205      6658499.8      6750322.1      6801589        6423588.3     -264.45682     -2387.5124      1202.6428    
    191100  -1075.3572      2338.6819      1.6316535      8702.9049      6658336.1      6754314.5      6795105.1      6425588.7      952.47168     -6494.3676     -599.21804    
    191200  -1075.1212      2338.6819      1.6316535      8706.071       6660862.4      6745185.1      6800963.3      6436438.8     -3564.1186      67.916828     -7252.4434    
    191300  -1075.9408      2338.6819      1.6316535      8696.4595      6654845.3      6745771.4      6801750.1      6417014.4     -4891.7289     -4976.0374     -3641.0014    
    191400  -1077.5486      2338.6819      1.6316535      8690.7708      6651379.7      6748289        6797439        6408411.2     -7457.0183      1326.5921      5079.1318    
    191500  -1074.9478      2338.6819      1.6316535      8698.9459      6656062.3      6740549.7      6802297.1      6425340.2     -2362.8598     -1899.0109      965.30423    
    191600  -1073.9098      2338.6819      1.6316535      8704.4746      6657503        6740622.8      6796389.9      6435496.3      3378.2762      3383.0576     -3143.7896    
    191700  -1072.5809      2338.6819      1.6316535      8710.6854      6661135.4      6745459.1      6795291.1      6442656        3943.7059      1508.4666     -3845.9869    
    191800  -1075.0916      2338.6819      1.6316535      8709.2249      6660491.4      6740365.9      6797091        6444017.4      887.06982      1634.051      -8755.2385    
    191900  -1075.1986      2338.6819      1.6316535      8710.5452      6661793.7      6746466.3      6802158.4      6436756.5      4728.7122      4554.2231     -3966.8312    
    192000  -1075.1084      2338.6819      1.6316535      8700.0324      6655186.1      6754248.8      6796922.8      6414386.6     -768.48852     -1571.7207      3757.5485    
    192100  -1072.6561      2338.6819      1.6316535      8702.8999      6657374.2      6747083.3      6800348.9      6424690.3     -5934.5073      6843.4644      950.63189    
    192200  -1073.9791      2338.6819      1.6316535      8706.1463      6659837.5      6755904.8      6800311.8      6423295.9     -1982.9524      4936.4353     -2679.5292    
    192300  -1074.4522      2338.6819      1.6316535      8697.6638      6654101.6      6736391.4      6807402.6      6418510.9     -4438.4826      2337.0353     -822.06857    
    192400  -1075.3134      2338.6819      1.6316535      8698.0829      6655186.9      6745985.4      6796035.4      6423539.9     -1071.7565      4118.3889      877.09051    
    192500  -1076.7197      2338.6819      1.6316535      8696.3113      6654399.8      6742680.4      6794364.7      6426154.2      7786.2894     -115.60453      2343.7633    
    192600  -1076.6579      2338.6819      1.6316535      8694.5362      6653197.5      6731149.1      6799870.6      6428573        2980.3351      4865.0484     -2344.372     
    192700  -1077.0709      2338.6819      1.6316535      8692.6038      6652530.6      6736441.8      6804276.6      6416873.3      4247.4688     -3900.7947      2007.0071    
    192800  -1076.8547      2338.6819      1.6316535      8696.7012      6654884.6      6745354.4      6802131.6      6417167.9     -7560.6761      1343.509       793.7829     
    192900  -1074.4661      2338.6819      1.6316535      8696.7912      6653007.4      6746085        6797956.9      6414980.2     -6417.2593     -626.64209      782.96784    
    193000  -1071.8995      2338.6819      1.6316535      8707.0038      6658257.6      6745528.6      6804725.8      6424518.4     -5230.7512      3123.9509      1986.933     
    193100  -1074.669       2338.6819      1.6316535      8709.3612      6660806.3      6749420.3      6802725.5      6430273.3      965.17638     -108.03255      795.60286    
    193200  -1075.5436      2338.6819      1.6316535      8707.4978      6660481.4      6748137.1      6801270.1      6432037        1701.1715      1082.6975      3910.8183    
    193300  -1075.1935      2338.6819      1.6316535      8704.006       6657851.5      6758122.2      6790166.1      6425266.2      2800.5694      2888.6244     -950.05035    
    193400  -1074.9451      2338.6819      1.6316535      8701.9027      6656870.8      6755023.8      6797928.2      6417660.5      8934.2385      512.12992     -6612.8222    
    193500  -1075.4059      2338.6819      1.6316535      8699.681       6656074.4      6748829.9      6798481        6420912.3      2718.6855      1921.4353      1713.6686    
    193600  -1076.655       2338.6819      1.6316535      8697.917       6655085.9      6748022.5      6804484.4      6412750.8      357.29808      2282.2188      4522.1781    
    193700  -1074.9227      2338.6819      1.6316535      8700.0057      6656065.4      6741766.2      6804921.2      6421508.8     -5283.123      -243.65449     -3705.2957    
    193800  -1074.57        2338.6819      1.6316535      8699.7526      6655608        6744419.5      6797127.5      6425277       -5140.3233      2606.5591     -2932.6434    
    193900  -1074.9854      2338.6819      1.6316535      8700.8566      6656027.3      6743444.8      6800514.1      6424123       -2713.8398      2095.0394     -1665.9323    
    194000  -1074.1071      2338.6819      1.6316535      8702.9397      6657155.9      6743605.9      6802724.4      6425137.2     -2123.9085     -1604.0742     -2015.3681    
    194100  -1074.2306      2338.6819      1.6316535      8703.3824      6657745.5      6747626.5      6799312.2      6426297.9     -267.20253     -6259.8222      3574.8434    
    194200  -1075.7367      2338.6819      1.6316535      8700.414       6655822.4      6747993.8      6802926.1      6416547.4     -1152.1035      2577.7664      7777.4048    
    194300  -1075.3011      2338.6819      1.6316535      8703.1911      6658465        6741483.4      6802179.7      6431731.9     -439.46738     -674.30416      6618.9528    
    194400  -1075.5056      2338.6819      1.6316535      8703.9482      6658271.8      6746780.8      6801266.8      6426767.8      1367.6556      1258.6485      860.70317    
    194500  -1075.0687      2338.6819      1.6316535      8706.8092      6660249.8      6744741.5      6798696.4      6437311.5      1901.7839     -2392.3152     -2591.8807    
    194600  -1073.4454      2338.6819      1.6316535      8707.6842      6660934.7      6747721.7      6794787.7      6440294.7      594.24534     -3288.701      -5605.4807    
    194700  -1074.5483      2338.6819      1.6316535      8702.5424      6658386.8      6747945.2      6799157.5      6428057.7      3812.3306     -919.13323      528.28177    
    194800  -1075.6754      2338.6819      1.6316535      8702.6909      6658736.5      6746018.8      6799242        6430948.6     -412.93878      4103.2399      883.59655    
    194900  -1074.0259      2338.6819      1.6316535      8701.5938      6657031.7      6747250.5      6799163.9      6424680.8      5010.7002     -3700.5091      476.58475    
    195000  -1073.7264      2338.6819      1.6316535      8706.2399      6659566.3      6745118.1      6798497.2      6435083.7      1771.4978      176.24463      1507.9264    
    195100  -1074.1785      2338.6819      1.6316535      8703.8207      6657477.2      6743084.7      6803693.6      6425653.3     -4356.7703     -3573.4438     -1408.8097    
    195200  -1075.9207      2338.6819      1.6316535      8704.6387      6658875.5      6745388.1      6800814        6430424.3     -4207.6351      3958.1647     -4557.7197    
    195300  -1075.47        2338.6819      1.6316535      8708.5094      6662103.2      6748400.8      6798560.4      6439348.4     -1588.9243      1711.787      -2351.2626    
    195400  -1074.0008      2338.6819      1.6316535      8705.0017      6658975.5      6751330.3      6796035.3      6429560.9      2382.2553      4496.3527     -3294.7463    
    195500  -1073.9833      2338.6819      1.6316535      8707.3371      6660427.1      6752127.2      6797076.2      6432078        6742.2519     -426.74236     -676.95047    
    195600  -1074.2638      2338.6819      1.6316535      8699.8664      6655955.6      6746301        6794079.5      6427486.2      2110.8825     -6690.9075     -608.47185    
    195700  -1075.4063      2338.6819      1.6316535      8702.3886      6658245.2      6743151.9      6800154.8      6431428.8      3799.5295     -6038.9039      641.53278    
    195800  -1073.6064      2338.6819      1.6316535      8701.8994      6656921.8      6743887.7      6796920.6      6429957       -2775.7097     -4333.9028     -1674.6177    
    195900  -1073.728       2338.6819      1.6316535      8700.5329      6655735.1      6748780.5      6794990.8      6423433.8     -5486.8448     -3968.0617      1301.8472    
    196000  -1073.1118      2338.6819      1.6316535      8698.4221      6653797        6740593.7      6804877.8      6415919.5      197.82252     -3993.1141     -3.7917266    
    196100  -1073.2164      2338.6819      1.6316535      8703.5887      6658279.6      6747234.7      6801619.8      6425984.4     -4913.5838     -6689.5358     -3843.8629    
    196200  -1075.5682      2338.6819      1.6316535      8698.3504      6654931.9      6747239.2      6790691.6      6426865       -1317.9849     -1525.7775      4477.4664    
    196300  -1076.1211      2338.6819      1.6316535      8704.1242      6658702.9      6748511.6      6800170.6      6427426.4     -1087.2333     -5434.788       683.3983     
    196400  -1074.4951      2338.6819      1.6316535      8700.9821      6656271.3      6736893.6      6798154.9      6433765.5      1861.3523      3063.8242     -2497.3524    
    196500  -1075.4825      2338.6819      1.6316535      8696.903       6655105        6742670.8      6797371.7      6425272.6     -1789.3996      5653.8838      3105.3161    
    196600  -1076.5396      2338.6819      1.6316535      8696.7165      6654965.8      6741501.8      6799992        6423403.5      669.23505     -2388.7973     -282.89097    
    196700  -1075.8333      2338.6819      1.6316535      8700.2346      6656194.1      6753447.5      6794216.5      6420918.2      3596.8562      890.14006      149.70426    
    196800  -1074.0113      2338.6819      1.6316535      8700.2218      6654680.6      6744207.3      6802027.3      6417807.3     -1199.9661     -1631.0287     -5424.2302    
    196900  -1073.4022      2338.6819      1.6316535      8701.0858      6655150.1      6744244.6      6797915.6      6423290.1     -206.51069      5776.7218      124.56964    
    197000  -1075.6275      2338.6819      1.6316535      8700.7501      6656456.3      6750166.8      6797192.7      6422009.6     -7209.6726      3102.0311     -3763.949     
    197100  -1075.2297      2338.6819      1.6316535      8699.8005      6656079.9      6746055.3      6798390.4      6423794.2     -4021.7888      2470.116       2925.0793    
    197200  -1074.0129      2338.6819      1.6316535      8699.4128      6655339.9      6744469.3      6794231.6      6427318.7     -2176.3439     -1921.3345      5048.5725    
    197300  -1074.7182      2338.6819      1.6316535      8703.8404      6657866.2      6749659.4      6793827.3      6430111.7      4082.1955      878.55258     -4015.3526    
    197400  -1072.4498      2338.6819      1.6316535      8703.304       6657424.1      6745851.1      6799162.1      6427258.9      3590.0189     -4548.061      -84.661781    
    197500  -1074.2491      2338.6819      1.6316535      8697.3405      6654327.4      6738476.6      6796806.6      6427699        1644.7963     -3797.5731      402.53006    
    197600  -1073.8257      2338.6819      1.6316535      8696.877       6653765.2      6749155.9      6793132.6      6419007.3     -468.14557     -1762.5751      114.49657    
    197700  -1074.3207      2338.6819      1.6316535      8697.3361      6654188.5      6739595.1      6792893        6430077.3     -6506.6388     -465.47637      1209.0381    
    197800  -1077.2502      2338.6819      1.6316535      8698.178       6655226.7      6738843.6      6796791        6430045.4     -3010.1927      563.24056     -5773.9578    
    197900  -1076.8567      2338.6819      1.6316535      8695.0057      6654370.7      6745471.4      6800737.4      6416903.4     -4946.0892     -1378.9374      3828.1626    
    198000  -1075.9197      2338.6819      1.6316535      8695.0439      6654120.4      6743640.1      6801820.5      6416900.7     -3962.3698      647.78617      655.62268    
    198100  -1074.5314      2338.6819      1.6316535      8701.76        6656752.6      6741067        6798899.6      6430291.1      9902.7267      2336.0449     -326.69007    
    198200  -1073.7692      2338.6819      1.6316535      8702.6427      6656243.9      6746576.8      6792233.6      6429921.2      8479.382      -515.49358      453.16213    
    198300  -1073.2784      2338.6819      1.6316535      8700.6321      6655358        6746742.8      6805043.5      6414287.6      6188.5311     -907.54124      4043.8961    
    198400  -1076.2497      2338.6819      1.6316535      8697.8162      6654971        6752218.7      6796273.7      6416420.6      578.71581      5653.4146     -1646.4043    
    198500  -1074.7417      2338.6819      1.6316535      8697.2667      6654149.7      6747968        6788599.5      6425881.5     -2270.1069     -1537.6505      3250.7009    
    198600  -1074.4091      2338.6819      1.6316535      8697.6069      6653373.6      6746077.8      6800898.3      6413144.7     -7920.4784      3214.7508      204.73756    
    198700  -1075.4842      2338.6819      1.6316535      8699.8611      6655319.6      6744654        6802716.3      6418588.4     -530.64703      5055.1911      5783.3042    
    198800  -1076.4531      2338.6819      1.6316535      8694.1217      6652377.6      6746411        6794772.5      6415949.2     -1827.6278     -882.40055      2453.0712    
    198900  -1073.937       2338.6819      1.6316535      8698.2724      6655139.2      6740250.3      6792088.5      6433078.7     -21.082058      1148.4161      2043.7128    
    199000  -1074.1402      2338.6819      1.6316535      8697.004       6653399.7      6740797.7      6793958.4      6425442.9      7699.77        1234.2972     -2937.8708    
    199100  -1073.7597      2338.6819      1.6316535      8696.6418      6652422.2      6746826.7      6796968.4      6413471.4      172.40663      2249.9968      5883.3659    
    199200  -1075.6507      2338.6819      1.6316535      8691.9845      6650998.5      6740333.8      6802020.2      6410641.5      2714.053      -673.53541     -4833.2126    
    199300  -1075.5525      2338.6819      1.6316535      8697.4688      6654927.9      6746623.4      6793942.9      6424217.5     -1462.9378     -1924.1416      4363.1878    
    199400  -1074.1705      2338.6819      1.6316535      8701.1219      6656346.9      6743628.8      6803817.8      6421594.1      3872.4862     -3451.406       2290.1644    
    199500  -1072.9423      2338.6819      1.6316535      8704.545       6657571        6751522.2      6800648.9      6420541.9     -1594.6039      149.945        351.91102    
    199600  -1074.4593      2338.6819      1.6316535      8704.3226      6656753.7      6753170.9      6797047.6      6420042.7      223.15643      4633.7505      1693.067     
    199700  -1074.3568      2338.6819      1.6316535      8707.314       6660546.7      6746669        6799594        6435377.1      2899.3684     -3612.1684     -3409.139     
    199800  -1073.3463      2338.6819      1.6316535      8703.1409      6657622.2      6752203.5      6792425.6      6428237.4      3801.7582      2605.2518     -5408.056     
    199900  -1074.7154      2338.6819      1.6316535      8698.5586      6654494.3      6751572.7      6792568.5      6419341.6      5273.7269      1785.3358      869.63507    
    200000  -1074.6596      2338.6819      1.6316535      8694.8187      6652079.5      6746465.2      6801070.8      6408702.5      4065.9353      1051.9346      5485.148     
Loop time of 7419.17 on 2 procs for 200000 steps with 2298 atoms

Performance: 0.466 ns/day, 51.522 hours/ns, 26.957 timesteps/s, 61.948 katom-step/s
143.3% CPU use with 1 MPI tasks x 2 OpenMP threads

MPI task timing breakdown:
Section |  min time  |  avg time  |  max time  |%varavg| %total
---------------------------------------------------------------
Pair    | 4400.3     | 4400.3     | 4400.3     |   0.0 | 59.31
Neigh   | 2956.3     | 2956.3     | 2956.3     |   0.0 | 39.85
Comm    | 38.848     | 38.848     | 38.848     |   0.0 |  0.52
Output  | 2.2891     | 2.2891     | 2.2891     |   0.0 |  0.03
Modify  | 16.101     | 16.101     | 16.101     |   0.0 |  0.22
Other   |            | 5.344      |            |       |  0.07

Nlocal:           2298 ave        2298 max        2298 min
Histogram: 1 0 0 0 0 0 0 0 0 0
Nghost:          17456 ave       17456 max       17456 min
Histogram: 1 0 0 0 0 0 0 0 0 0
Neighs:              0 ave           0 max           0 min
Histogram: 1 0 0 0 0 0 0 0 0 0
FullNghs:  3.25809e+06 ave 3.25809e+06 max 3.25809e+06 min
Histogram: 1 0 0 0 0 0 0 0 0 0

Total # of neighbors = 3258088
Ave neighs/atom = 1417.7929
Neighbor list builds = 20000
Dangerous builds not checked

undump          1
unfix           1

quit
