#******************************************************************
units           metal
atom_style      atomic
boundary        p p p

read_data	data.$g
read_data	data.4
Reading data file ...
  triclinic box = (0 0 0) to (13.4375 13.4375 12.952) with tilt (0 0 0)
  1 by 1 by 1 MPI processor grid
  reading atoms ...
  2298 atoms
  read_data CPU = 0.010 seconds
# H deep potential
pair_style      deepmd H.pb fparam 300.0
Summary of lammps deepmd module ...
  >>> Info of deepmd-kit:
  installed to:       /work/home/acl7i3im69/soft/deepmd-kit
  source:             
  source branch:      HEAD
  source commit:      c45d372
  source commit at:   2024-07-07 08:06:13 +0000
  support model ver.: 1.1 
  build variant:      cuda
  build with tf inc:  /work/home/acl7i3im69/soft/deepmd-kit/lib/python3.11/site-packages/tensorflow/include;/work/home/acl7i3im69/soft/deepmd-kit/include
  build with tf lib:  /work/home/acl7i3im69/soft/deepmd-kit/lib/python3.11/site-packages/tensorflow/libtensorflow_cc.so.2
  set tf intra_op_parallelism_threads: 0
  set tf inter_op_parallelism_threads: 4
  >>> Info of lammps module:
  use deepmd-kit at:  /work/home/acl7i3im69/soft/deepmd-kitpair_coeff      * *
mass            1 1.000000

neighbor        1 bin
neigh_modify    every 10 delay 0 check no

compute         pe all pe/atom
compute         ke all ke/atom

thermo          1
thermo_style    custom step pe vol density enthalpy press pxx pyy pzz pxy pxz pyz

# 1. getting the potential energy of pristine crystal: E_pristine
variable        n_min equal 5000
reset_timestep  0
min_style       cg
min_modify      line quadratic
minimize        0.0 1.0e-2 ${n_min} 10000 # etol ,ftol, max iterations, max number of force/energy evaluations
minimize        0.0 1.0e-2 5000 10000 

CITE-CITE-CITE-CITE-CITE-CITE-CITE-CITE-CITE-CITE-CITE-CITE-CITE

Your simulation uses code contributions which should be cited:

- USER-DEEPMD package:

@article{Wang_ComputPhysCommun_2018_v228_p178,
  author = {Wang, Han and Zhang, Linfeng and Han, Jiequn and E, Weinan},
  doi = {10.1016/j.cpc.2018.03.016},
  url = {https://doi.org/10.1016/j.cpc.2018.03.016},
  year = 2018,
  month = {jul},
  publisher = {Elsevier {BV}},
  volume = 228,
  journal = {Comput. Phys. Commun.},
  title = {{DeePMD-kit: A deep learning package for many-body potential energy representation and molecular dynamics}},
  pages = {178--184}
}
@misc{Zeng_JChemPhys_2023_v159_p054801,
  title  = {{DeePMD-kit v2: A software package for deep potential models}},
  author =   {Jinzhe Zeng and Duo Zhang and Denghui Lu and Pinghui Mo and Zeyu Li
         and Yixiao Chen and Mari{\'a}n Rynik and Li'ang Huang and Ziyao Li and 
         Shaochen Shi and Yingze Wang and Haotian Ye and Ping Tuo and Jiabin
         Yang and Ye Ding and Yifan Li and Davide Tisi and Qiyu Zeng and Han 
         Bao and Yu Xia and Jiameng Huang and Koki Muraoka and Yibo Wang and 
         Junhan Chang and Fengbo Yuan and Sigbj{\o}rn L{\o}land Bore and Chun
         Cai and Yinnian Lin and Bo Wang and Jiayan Xu and Jia-Xin Zhu and 
         Chenxing Luo and Yuzhi Zhang and Rhys E A Goodall and Wenshuo Liang
         and Anurag Kumar Singh and Sikai Yao and Jingchao Zhang and Renata
         Wentzcovitch and Jiequn Han and Jie Liu and Weile Jia and Darrin M
         York and Weinan E and Roberto Car and Linfeng Zhang and Han Wang},
  journal =  {J. Chem. Phys.},
  volume =   159,
  issue =    5,  
  year =    2023,
  pages  =   054801,
  doi =      {10.1063/5.0155600},
}

CITE-CITE-CITE-CITE-CITE-CITE-CITE-CITE-CITE-CITE-CITE-CITE-CITE

Switching to 'neigh_modify every 1 delay 0 check yes' setting during minimization
Generated 0 of 0 mixed pair_coeff terms from geometric mixing rule
Neighbor list info ...
  update: every = 1 steps, delay = 0 steps, check = yes
  max neighbors/atom: 2000, page size: 100000
  master list distance cutoff = 7
  ghost atom cutoff = 7
  binsize = 3.5, bins = 4 4 4
  1 neighbor lists, perpetual/occasional/extra = 1 0 0
  (1) pair deepmd, perpetual
      attributes: full, newton on
      pair build: full/bin/atomonly
      stencil: full/bin/3d
      bin: standard
Per MPI rank memory allocation (min/avg/max) = 22.54 | 22.54 | 22.54 Mbytes
   Step         PotEng         Volume        Density        Enthalpy        Press           Pxx            Pyy            Pzz            Pxy            Pxz            Pyz      
         0  -1056.4722      2338.6961      1.6316436      8631.9966      6637304        6717304.3      6770741.7      6423866.1      4593.3984     -3502.0474     -2152.4255    
         1  -1090.6778      2338.6961      1.6316436      8554.5724      6607696.2      6695762.3      6755740.2      6371586.2      4481.816      -2791.968      -2441.9988    
         2  -1102.7473      2338.6961      1.6316436      8536.8954      6603854.6      6701476.1      6757166.8      6352920.9      2761.5294     -2797.1182     -2602.5289    
         3  -1110.6478      2338.6961      1.6316436      8525.9221      6601749.6      6704263.8      6762034.8      6338950.1      1693.9864     -2513.6031     -2749.209     
         4  -1115.3282      2338.6961      1.6316436      8518.925       6600162.4      6705044.1      6767967.5      6327475.8      147.79748     -2404.3535     -2972.9463    
         5  -1117.8463      2338.6961      1.6316436      8514.8043      6599064.5      6706679.1      6770120.5      6320393.9     -89.822787     -2548.1074     -2616.3359    
         6  -1119.3652      2338.6961      1.6316436      8512.4082      6598463.6      6706603.6      6772495.6      6316291.5     -446.08376     -2216.3706     -2428.8985    
         7  -1120.3761      2338.6961      1.6316436      8510.6107      6597924.7      6706854.8      6773385        6313534.2     -483.44013     -1498.0791     -1531.1175    
         8  -1120.9514      2338.6961      1.6316436      8509.4655      6597534.3      6706836.4      6774768.1      6310998.5     -1127.0481     -1279.9765     -741.37473    
         9  -1121.3794      2338.6961      1.6316436      8508.4597      6597138.4      6706629.9      6775097.8      6309687.5     -343.91109     -1241.3843     -947.38121    
        10  -1121.6683      2338.6961      1.6316436      8507.7483      6596849        6705992.9      6775697.6      6308856.6     -610.80304     -836.24711     -203.57583    
        11  -1121.8166      2338.6961      1.6316436      8507.3184      6596656.1      6705699.6      6775712.5      6308556.3     -315.65411     -603.96924      97.007063    
        12  -1121.917       2338.6961      1.6316436      8506.9878      6596498.4      6705401        6775189.5      6308904.6     -298.47627     -464.079       -102.08239    
        13  -1122.0639      2338.6961      1.6316436      8506.5498      6596298.9      6705306.1      6774845.5      6308745.2     -248.39209     -381.02886     -232.14293    
        14  -1122.1549      2338.6961      1.6316436      8506.2378      6596147.6      6705123.7      6774421        6308898       -697.62041     -474.78687     -161.50898    
        15  -1122.1804      2338.6961      1.6316436      8506.0201      6596015.9      6705363.9      6773658.3      6309025.5     -708.02296     -769.93563     -274.10195    
        16  -1122.1935      2338.6961      1.6316436      8505.8571      6595913.2      6704746.3      6773235.6      6309757.6     -839.8279      -718.70103      116.52335    
        17  -1122.2096      2338.6961      1.6316436      8505.697       6595814.6      6704589.6      6772706.7      6310147.4     -914.31763     -815.36703      52.837927    
        18  -1122.2096      2338.6961      1.6316436      8505.697       6595814.6      6704589.6      6772706.7      6310147.4     -914.31763     -815.36703      52.837927    
Loop time of 1.7923 on 2 procs for 18 steps with 2298 atoms

88.3% CPU use with 1 MPI tasks x 2 OpenMP threads

Minimization stats:
  Stopping criterion = linesearch alpha is zero
  Energy initial, next-to-last, final = 
     -1056.47216379494  -1122.20963470771  -1122.20963470771
  Force two-norm initial, final = 37.275943 1.4097076
  Force max component initial, final = 1.6618708 0.075376431
  Final line search alpha, max atom move = 5.2022131e-09 3.9212426e-10
  Iterations, force evaluations = 18 89

MPI task timing breakdown:
Section |  min time  |  avg time  |  max time  |%varavg| %total
---------------------------------------------------------------
Pair    | 1.7628     | 1.7628     | 1.7628     |   0.0 | 98.36
Neigh   | 0          | 0          | 0          |   0.0 |  0.00
Comm    | 0.01706    | 0.01706    | 0.01706    |   0.0 |  0.95
Output  | 0.0037156  | 0.0037156  | 0.0037156  |   0.0 |  0.21
Modify  | 0          | 0          | 0          |   0.0 |  0.00
Other   |            | 0.008691   |            |       |  0.48

Nlocal:           2298 ave        2298 max        2298 min
Histogram: 1 0 0 0 0 0 0 0 0 0
Nghost:          17448 ave       17448 max       17448 min
Histogram: 1 0 0 0 0 0 0 0 0 0
Neighs:              0 ave           0 max           0 min
Histogram: 1 0 0 0 0 0 0 0 0 0
FullNghs:  3.25754e+06 ave 3.25754e+06 max 3.25754e+06 min
Histogram: 1 0 0 0 0 0 0 0 0 0

Total # of neighbors = 3257544
Ave neighs/atom = 1417.5561
Neighbor list builds = 0
Dangerous builds not checked

# 2. dump files of pristine structure with different alatt
variable	my_step equal $g*1000
variable	my_step equal 4*1000
reset_timestep  0
dump            1 all cfg 1 voids-relax.${my_step}.*.cfg mass type xs ys zs id c_pe
dump            1 all cfg 1 voids-relax.4000.*.cfg mass type xs ys zs id c_pe
dump_modify     1 element H
run             0
WARNING: No fixes with time integration, atoms won't move (src/verlet.cpp:60)
Generated 0 of 0 mixed pair_coeff terms from geometric mixing rule
Per MPI rank memory allocation (min/avg/max) = 19.67 | 19.67 | 19.67 Mbytes
   Step         PotEng         Volume        Density        Enthalpy        Press           Pxx            Pyy            Pzz            Pxy            Pxz            Pyz      
         0  -1122.2096      2338.6961      1.6316436      8505.697       6595814.6      6704589.6      6772706.7      6310147.4     -914.31763     -815.36703      52.837927    
Loop time of 1.91e-06 on 2 procs for 0 steps with 2298 atoms

261.8% CPU use with 1 MPI tasks x 2 OpenMP threads

MPI task timing breakdown:
Section |  min time  |  avg time  |  max time  |%varavg| %total
---------------------------------------------------------------
Pair    | 0          | 0          | 0          |   0.0 |  0.00
Neigh   | 0          | 0          | 0          |   0.0 |  0.00
Comm    | 0          | 0          | 0          |   0.0 |  0.00
Output  | 0          | 0          | 0          |   0.0 |  0.00
Modify  | 0          | 0          | 0          |   0.0 |  0.00
Other   |            | 1.91e-06   |            |       |100.00

Nlocal:           2298 ave        2298 max        2298 min
Histogram: 1 0 0 0 0 0 0 0 0 0
Nghost:          17446 ave       17446 max       17446 min
Histogram: 1 0 0 0 0 0 0 0 0 0
Neighs:              0 ave           0 max           0 min
Histogram: 1 0 0 0 0 0 0 0 0 0
FullNghs:  3.26379e+06 ave 3.26379e+06 max 3.26379e+06 min
Histogram: 1 0 0 0 0 0 0 0 0 0

Total # of neighbors = 3263790
Ave neighs/atom = 1420.2742
Neighbor list builds = 0
Dangerous builds not checked
shell           mv voids-relax.${my_step}.0.cfg voids-relax.${my_step}.cfg
shell           mv voids-relax.4000.0.cfg voids-relax.${my_step}.cfg
shell           mv voids-relax.4000.0.cfg voids-relax.4000.cfg
undump          1

quit
