ITEM: TIMESTEP
66000
ITEM: NUMBER OF ATOMS
2304
ITEM: BOX BOUNDS pp pp pp
-6.7187500000 6.7187500000
-6.7187500000 6.7187500000
-6.4760000000 6.4760000000
ITEM: ATOMS id type x y z
1 1 -6.6621949219 -6.4510978438 -4.0743624480
2 1 -5.0269553125 -6.1705120938 -6.4045572861
3 1 -5.5652172188 -6.2872974063 -4.0513078880
4 1 -4.4334075000 -6.5859501438 -4.8607172240
5 1 -4.4972759375 -6.0476449688 -4.0194718720
6 1 -3.8613059375 -6.5958741406 -5.6852065736
7 1 -3.3556796875 -6.4696375625 -4.8028865440
8 1 -3.3809018750 -5.8567155625 -4.0782610000
9 1 -2.8161640625 -6.3477191250 -5.6699335752
10 1 -6.6849902969 -5.2989034375 -3.9990077120
11 1 -6.1845596563 -5.7664209375 -5.6671955224
12 1 -5.6144979063 -5.7233174688 -4.8466772560
13 1 -5.5256585625 -5.1522868750 -4.0553877680
14 1 -5.0757603125 -5.5746866250 -5.6768499432
15 1 -4.4872112500 -5.5326554688 -4.9277826800
16 1 -4.4011575000 -4.9925150000 -4.0710596880
17 1 -3.8817443750 -5.4588352188 -5.6555283608
18 1 -3.3540940625 -5.2908812500 -4.8375331440
19 1 -2.8146456250 -4.7444453125 -6.4451618061
20 1 -2.3675934375 -4.5707253125 -3.9544010240
21 1 -2.7645909375 -5.2987421875 -5.6009045960
22 1 -6.6830469656 -4.7668859375 -4.8422088160
23 1 -6.1226638438 -4.6844468750 -5.6732790768
24 1 -5.5950054688 -4.5719212500 -4.8260447200
25 1 -5.5630631875 -4.0285759375 -3.9983860160
26 1 -5.0241065625 -4.4699440625 -5.6716341728
27 1 -4.5009981250 -4.4292956250 -4.8363674640
28 1 -4.3825868750 -3.8375753125 -4.0597914480
29 1 -3.9418637500 -4.3021231250 -5.6775092000
30 1 -3.3727721875 -4.2422321875 -4.8309664800
31 1 -2.7542709375 -3.5682878125 -6.3850233387
32 1 -3.7994262500 -3.7735321875 -3.3443488720
33 1 -2.8046615625 -4.1731365625 -5.6780739072
34 1 -6.1028959375 -3.5589084375 -5.6768590096
35 1 -5.5398203438 -3.4680306250 -4.8292050080
36 1 -5.6279931875 -2.9071762500 -4.0616953920
37 1 -4.9951756250 -3.3816409375 -5.6658485144
38 1 -4.4513868750 -3.2782796875 -4.8510938880
39 1 -4.4893612500 -2.7187018750 -4.0097967280
40 1 -3.8720156250 -3.2062815625 -5.6557459544
41 1 -3.3287912500 -3.3437606250 -4.6889737040
42 1 -3.3242225000 -2.7658540625 -4.0438216320
43 1 -2.8676700000 -2.9739740625 -5.6671877512
44 1 -6.1368981875 -6.3266558438 -3.2127047440
45 1 -5.0510756250 -6.1701667500 -3.1809075840
46 1 -3.9229571875 -6.0310281563 -3.2501489760
47 1 -3.8813815625 -6.5660328125 -2.4459592960
48 1 -2.8144575000 -5.5283380000 -3.3034594080
49 1 -2.8090556250 -6.2344611563 -2.4704774320
50 1 -6.0702643125 -5.2347528125 -3.2681911120
51 1 -6.2154591875 -5.7647076563 -2.4081394560
52 1 -4.9310384375 -5.0121606250 -3.2411861920
53 1 -5.0403659375 -5.5842810000 -2.4254821840
54 1 -3.8541437500 -4.8768718750 -3.1808428240
55 1 -3.8957731250 -5.4611222813 -2.4199257760
56 1 -2.7760262500 -4.1833893750 -2.5123382960
57 1 -2.7688371875 -5.0919659375 -2.5420760880
58 1 -6.1762687188 -4.0868543750 -3.2781641520
59 1 -6.1364735625 -4.6549381250 -2.4991790640
60 1 -4.9413181250 -3.9222987500 -3.2818166160
61 1 -5.0658434375 -4.4690975000 -2.4381492400
62 1 -3.9187378125 -4.2960762500 -2.3943973840
63 1 -2.8374221875 -3.7242568750 -3.3114378400
64 1 -6.2074746250 -2.9983631250 -3.2489832960
65 1 -6.0454855625 -3.5379459375 -2.4410763920
66 1 -5.0766337500 -2.7835646875 -3.2772057040
67 1 -4.9991262500 -3.3525487500 -2.4943997760
68 1 -3.8955715625 -2.6766425000 -3.2422871120
69 1 -3.9487303125 -3.2530171875 -2.4341211680
70 1 -2.7681250000 -2.4905465625 -3.2139222320
71 1 -2.8167956250 -3.0792568750 -2.4850225280
72 1 -3.3204868750 -4.6253756250 -3.9563956320
73 1 -6.1231355000 -2.4684015625 -5.6624654520
74 1 -5.5826685000 -2.3259909375 -4.8461203200
75 1 -5.0259609375 -2.2589378125 -5.6592235664
76 1 -6.1418740938 -2.4558643750 -2.3957573440
77 1 -4.9827728125 -2.2635334375 -2.3998501760
78 1 -2.2590587500 -6.3339645000 -4.8467161120
79 1 -2.2516143750 -5.7437908438 -4.1202902400
80 1 -2.2650518750 -3.4788343750 -4.0330067120
81 1 -6.6457026750 -3.6226693750 -4.8579973040
82 1 -3.9570078125 -6.0184842500 -6.4575005289
83 1 -3.8899815625 -4.8831606250 -6.4233067308
84 1 -5.0277750000 -2.8360784375 -6.4689405901
85 1 -2.1873696875 -5.0970856250 -4.8133129040
86 1 -2.2161393750 -4.0594418750 -4.8858570560
87 1 -2.2352071875 -2.9899646875 -4.9509797120
88 1 -2.2037903125 -2.4357887500 -4.0517871120
89 1 -1.6769059375 -6.2941518750 -5.6035506896
90 1 -1.0783325000 -6.2555849063 -4.8723610720
91 1 -0.5685406250 -5.8077345313 -6.3914516754
92 1 -1.1506128125 -5.7362403125 -4.0113250640
93 1 -0.5294778125 -6.4313111250 -5.6829477448
94 1 0.0325053125 -6.4235885938 -4.8707679760
95 1 0.5757700000 -5.8823180313 -6.4648089669
96 1 0.0198875000 -5.9069247813 -3.9812246160
97 1 0.5866543750 -6.4973120938 -5.7344358304
98 1 1.0884509375 -6.6571781656 -4.8663902000
99 1 1.1229718750 -6.0808476875 -4.0955130640
100 1 1.6815956250 -6.6305836063 -5.6517865280
101 1 -1.6936625000 -4.6316375000 -6.4675597774
102 1 -1.6887309375 -5.2110893750 -5.6881285448
103 1 -1.1204590625 -5.1623918750 -4.8367689760
104 1 -1.1564984375 -4.6184956250 -3.9781808960
105 1 -0.5874337500 -5.2025700000 -5.6994278696
106 1 -0.0497187500 -5.3802661563 -4.8589557520
107 1 -0.0260956250 -4.8129093750 -4.0712928240
108 1 0.5513271875 -5.3579881250 -5.6204582304
109 1 1.1312762500 -5.4877043438 -4.8613777760
110 1 1.6852506250 -4.9493403125 -6.4310632950
111 1 1.0582165625 -4.9451612500 -4.0530823120
112 1 1.6803593750 -5.5603528438 -5.6567044024
113 1 -1.6732643750 -3.4652893750 -6.4647035117
114 1 -1.6515090625 -4.0552896875 -5.7095433816
115 1 -1.1459634375 -4.0706218750 -4.8119788480
116 1 -1.2025084375 -3.4863325000 -4.0458810000
117 1 -0.5900003125 -4.0942853125 -5.6306669968
118 1 -0.0109918750 -4.2146315625 -4.8151261840
119 1 0.6656668750 -3.7521262500 -6.4459332272
120 1 -0.0431343750 -3.6530918750 -4.0360245280
121 1 0.5239146875 -4.2920046875 -5.6122609096
122 1 1.1484628125 -4.3774134375 -4.8512881680
123 1 1.1359390625 -3.8183596875 -4.0604908560
124 1 1.6764893750 -4.3590175000 -5.7977814720
125 1 -1.6447768750 -2.3665318750 -6.4537522201
126 1 -1.6537262500 -2.9109656250 -5.6352545952
127 1 -1.0666821875 -2.9278296875 -4.8400328800
128 1 -1.1135790625 -2.3535915625 -4.0505566720
129 1 -0.5454953125 -3.0358671875 -5.6660026432
130 1 0.5189831250 -3.1784256250 -5.6600537896
131 1 0.0182615625 -3.0741909375 -4.8006328960
132 1 1.1188868750 -3.2565243750 -4.8730216240
133 1 1.1285215625 -2.6879971875 -4.1004089200
134 1 1.6417400000 -2.8202490625 -3.2153469520
135 1 1.6823078125 -3.4305668750 -5.7239408248
136 1 -1.7175140625 -5.7416206875 -3.2410437200
137 1 -1.7026790625 -6.2622767813 -2.4207806080
138 1 -0.5642809375 -5.8146427500 -3.2429994720
139 1 -0.5503059375 -6.3737730938 -2.4456354960
140 1 0.6084500000 -5.9452162813 -3.2042082320
141 1 0.5235115625 -6.5414314375 -2.4579528480
142 1 1.6636565625 -6.1170187500 -3.2205018480
143 1 1.6739631250 -6.6747057719 -2.3904470240
144 1 -1.7451012500 -4.6381546875 -3.2834615200
145 1 -1.6443468750 -5.1678475000 -2.3937497840
146 1 -0.5523081250 -4.6427503125 -3.2112800240
147 1 -0.5970415625 -5.2443875000 -2.4619420640
148 1 0.5258228125 -4.8114984375 -3.2138056640
149 1 0.5664712500 -5.3843995313 -2.4185010560
150 1 1.6616946875 -5.0269150000 -3.3192608480
151 1 1.7266650000 -5.5427201563 -2.4203402400
152 1 -1.6868765625 -3.4886303125 -3.1707920720
153 1 -1.6974384375 -4.1089590625 -2.4357013120
154 1 -0.5936821875 -3.5453365625 -3.2419115040
155 1 -0.5843700000 -4.0868140625 -2.4104578640
156 1 0.5672506250 -3.7256812500 -3.2999494160
157 1 0.5832681250 -4.2486687500 -2.4215188720
158 1 1.7178500000 -3.9257387500 -3.2687869040
159 1 1.6390121875 -4.4946421875 -2.4496765200
160 1 -1.6724446875 -2.9177650000 -2.4382787600
161 1 0.0280440625 -2.4958275000 -4.0261421520
162 1 -0.5318562500 -2.9705206250 -2.4145636480
163 1 0.5882534375 -2.6193718750 -3.2323529280
164 1 0.5041346875 -3.2031909375 -2.4324244560
165 1 2.2085471875 -6.2140737813 -4.0860192480
166 1 2.2040725000 -2.8394378125 -4.0470337280
167 1 1.6823750000 -2.3336906250 -5.7114266024
168 1 -1.6834634375 -2.3422234375 -3.2196081600
169 1 -0.5754878125 -2.4579203125 -3.2714809200
170 1 1.6517240625 -3.3876475000 -2.4285388560
171 1 2.1843462500 -4.5616818750 -4.8766999920
172 1 -0.4837096875 -4.6251471875 -6.4751313443
173 1 -0.5448503125 -2.4360171875 -6.4392940320
174 1 6.7086315625 -5.8598223125 -4.8077694480
175 1 6.6917137500 -4.1936153125 -4.0727304960
176 1 2.2444925000 -3.3724900000 -4.8743815840
177 1 6.6826031250 -3.0585631250 -4.0861876240
178 1 2.8203565625 -6.3528267188 -6.4597088449
179 1 3.9071546875 -6.4806966250 -6.4394243291
180 1 3.3670209375 -6.3959019688 -4.0274762080
181 1 4.4979478125 -6.5279737813 -4.0379025680
182 1 5.6258512500 -6.5400110938 -4.0390164400
183 1 2.2534687500 -5.6335522813 -4.8445401760
184 1 2.2731546875 -5.0864028125 -4.0125814080
185 1 2.7826375000 -5.7435422500 -5.7013305184
186 1 3.3259962500 -5.8629505625 -4.8614943440
187 1 3.3946215625 -5.2700396875 -4.0928060960
188 1 3.9157009375 -5.9206216250 -5.6248126928
189 1 4.5160212500 -5.9910932500 -4.8768424640
190 1 5.0287962500 -5.4903475000 -6.4468567048
191 1 4.4421687500 -5.4201217813 -4.0814730960
192 1 5.0732743750 -6.0581074063 -5.6599359264
193 1 5.6424465625 -5.9739873125 -4.8516119680
194 1 5.5545653125 -5.4420155000 -4.0067271040
195 1 6.1858053125 -5.9759827813 -5.6962766480
196 1 2.2688815625 -3.9694106250 -4.1286831360
197 1 2.8218078125 -4.6361121875 -5.6137905408
198 1 3.3725706250 -4.6958553125 -4.8551349120
199 1 3.8941471875 -4.2940606250 -6.4539670938
200 1 3.3291675000 -4.1370971875 -4.0457773840
201 1 3.9432478125 -4.8488681250 -5.6474748072
202 1 4.5316356250 -4.8430631250 -4.8656130800
203 1 5.0501887500 -4.3263240625 -6.4481398594
204 1 4.4958784375 -4.3158965625 -3.9937232960
205 1 5.0745509375 -4.9097400000 -5.6921967680
206 1 5.6411296875 -4.9078318750 -4.8591500320
207 1 5.6025506250 -4.3184228125 -4.0967694080
208 1 6.2030053125 -4.8272337500 -5.6782850248
209 1 2.7860909375 -2.9866859375 -6.4441735685
210 1 2.8215659375 -3.5635981250 -5.6578389976
211 1 3.3748550000 -3.5583171875 -4.8370021120
212 1 3.9416487500 -3.0885287500 -6.4615932314
213 1 3.3730275000 -3.0228865625 -3.9851102160
214 1 3.8918896875 -3.6888625000 -5.7362439296
215 1 4.4160328125 -3.7875878125 -4.8689287920
216 1 4.5396309375 -3.2379671875 -4.0544163680
217 1 5.0095806250 -3.7565471875 -5.6505029848
218 1 5.5953884375 -3.7668268750 -4.9102197680
219 1 5.6189309375 -3.2219631250 -4.0815767120
220 1 6.2090656250 -3.7309621875 -5.6298665632
221 1 2.7701003125 -6.3273290625 -3.2897173360
222 1 3.9265853125 -6.4895223750 -3.2500194560
223 1 5.0642578125 -6.6044687656 -3.2370026960
224 1 6.2153543750 -6.5328542813 -3.2623756640
225 1 2.8562346875 -5.2240028125 -3.2434657440
226 1 2.7753678125 -5.7942795625 -2.4426435840
227 1 3.9183346875 -5.3734278125 -3.1784985120
228 1 3.9113875000 -5.9647611250 -2.4142139440
229 1 4.9810662500 -5.4582681563 -3.2283378080
230 1 5.0912806250 -6.0325170313 -2.4543262880
231 1 6.1576671875 -5.3889669375 -3.2921911680
232 1 6.1434100000 -5.9470249688 -2.4746220720
233 1 2.7699928125 -4.1011518750 -3.2012422240
234 1 2.7647521875 -4.6695043750 -2.4301060480
235 1 3.8982187500 -4.2584512500 -3.2585936800
236 1 3.9578409375 -4.7802025000 -2.4163121680
237 1 5.0891171875 -4.3457546875 -3.2227036880
238 1 5.0946131250 -4.9038946875 -2.4180995440
239 1 6.1455734375 -4.2634096875 -3.2223669360
240 1 6.2252981250 -4.8507628125 -2.4529792800
241 1 2.7624140625 -2.9718509375 -3.2792650720
242 1 2.8502146875 -3.5064350000 -2.4508681040
243 1 3.9702706250 -3.0965912500 -3.2661058400
244 1 3.9087268750 -3.6701037500 -2.4787278560
245 1 5.0802484375 -3.2097484375 -3.2053091520
246 1 4.9854065625 -3.7821725000 -2.4289921760
247 1 6.1551946875 -3.2013096875 -3.1971234880
248 1 6.2220193750 -3.7323328125 -2.3633255360
249 1 6.7156996875 -2.4878456250 -4.8921258240
250 1 2.2642321875 -2.2832731250 -4.9002078720
251 1 2.8030759375 -2.3854787500 -5.7498927472
252 1 3.3180143750 -2.5065371875 -4.8701980880
253 1 3.9247040625 -2.5351993750 -5.6432511600
254 1 4.4730750000 -2.6794778125 -4.8391780480
255 1 5.0247650000 -2.6446612500 -5.6586899440
256 1 5.5992987500 -2.6317075000 -4.8823600160
257 1 6.1593737500 -2.6033812500 -5.6878928184
258 1 2.7743331250 -2.3994940625 -2.4880921520
259 1 3.8868237500 -2.5709028125 -2.4074270960
260 1 5.0584125000 -2.6281196875 -2.4131000720
261 1 6.1558531250 -2.5906962500 -2.4642734240
262 1 2.8081418750 -5.1832871875 -6.4584264674
263 1 6.1618193750 -5.3954559063 -6.4673379873
264 1 6.1382634375 -3.1788556250 -6.4500044294
265 1 -3.3272325000 -2.1187981250 -4.7992081760
266 1 -6.1620384063 -1.8711315625 -6.4335028042
267 1 -5.6182389063 -1.7376703125 -4.1057710480
268 1 -4.4357590625 -2.2126993750 -4.8468197280
269 1 -4.5315415625 -1.6210731250 -4.0828978160
270 1 -3.8795675000 -2.1226143750 -5.6308405536
271 1 -3.3859275000 -1.5726443750 -4.0382004640
272 1 -2.8039359375 -1.8885868750 -5.6677654104
273 1 -6.1030639063 -0.7356628125 -6.4534241459
274 1 -6.6862559750 -0.8895625000 -4.0393272880
275 1 -6.1941365625 -1.3128840625 -5.6590733232
276 1 -5.6152235313 -1.1752975000 -4.9177319280
277 1 -5.0391834375 -0.6055609375 -6.4199212075
278 1 -5.5748626563 -0.6590287500 -4.0121669440
279 1 -5.0007925000 -1.1881303125 -5.6537306232
280 1 -4.4628490625 -1.0335318750 -4.8333626000
281 1 -4.4988750000 -0.4450231250 -4.0726657360
282 1 -3.8969153125 -1.0269743750 -5.6268396808
283 1 -3.3291675000 -0.9559975000 -4.8076140240
284 1 -2.8086525000 -0.2740040625 -6.4639691203
285 1 -3.3864246875 -0.3616837500 -4.1032324560
286 1 -2.7894503125 -0.8027025000 -5.6296968920
287 1 -6.2213770625 -0.1526231250 -5.6990587376
288 1 -5.6391127188 -0.1235040625 -4.8826579120
289 1 -5.5809444688 0.4045225000 -4.0229171040
290 1 -5.0808128125 -0.0173075000 -5.6802822232
291 1 -4.5093562500 0.0961856250 -4.9099089200
292 1 -4.4428406250 0.6177084375 -3.9883223120
293 1 -3.9012153125 0.0554162500 -5.6583868672
294 1 -3.3840059375 0.2539418750 -4.8293474800
295 1 -3.3492162500 0.8481078125 -4.0761368720
296 1 -2.8068787500 0.2946709375 -5.6317730976
297 1 -6.1248138438 0.9202134375 -5.6804596656
298 1 -5.5947541875 0.9797684375 -4.7959701760
299 1 -5.6254561875 1.5855443750 -4.0972486320
300 1 -5.0936456250 1.1471056250 -5.7029339760
301 1 -4.5173918750 1.1358584375 -4.8779174800
302 1 -4.4692453125 1.6798353125 -4.0307142080
303 1 -3.9600178125 1.2533559375 -5.6900208320
304 1 -3.3982631250 1.3848553125 -4.9121237120
305 1 -2.8060859375 1.9689028125 -6.4420468501
306 1 -2.7833496875 1.3823156250 -5.6559972232
307 1 -6.1169408125 -1.8940559375 -3.2040139520
308 1 -5.0747525000 -1.6988090625 -3.2258898800
309 1 -3.9687387500 -1.5358928125 -3.2716363440
310 1 -3.9217746875 -2.0962500000 -2.4872761760
311 1 -2.8192143750 -1.3741993750 -3.2640076160
312 1 -2.8371668750 -1.9213609375 -2.4354422720
313 1 -6.1508355625 -0.7100778125 -3.2214602960
314 1 -6.2143707500 -1.3084093750 -2.4754769040
315 1 -5.0018540625 -0.6208125000 -3.1965276960
316 1 -5.0502290625 -1.1700165625 -2.3748528160
317 1 -3.9186303125 -0.4762653125 -3.2533999280
318 1 -3.8601906250 -0.9907737500 -2.3924416320
319 1 -2.8509537500 -0.2159271875 -3.2703540960
320 1 -2.7596459375 -0.7916434375 -2.4788832800
321 1 -6.2061335625 0.4071293750 -3.2937454080
322 1 -6.1444097500 -0.1301690625 -2.4500780320
323 1 -5.0445584375 0.5984525000 -3.2275088800
324 1 -5.0654134375 -0.0110321875 -2.5088671600
325 1 -3.8595053125 0.6394637500 -3.2138574720
326 1 -3.9530168750 0.0934040625 -2.4105485280
327 1 -6.1582114063 1.4583315625 -3.2372876400
328 1 -6.1384287188 0.9286790625 -2.3802667520
329 1 -5.0853950000 1.7177559375 -3.2726595520
330 1 -5.0060331250 1.1639965625 -2.4525648160
331 1 -2.7652628125 1.9690640625 -3.2270685120
332 1 -3.9163862500 1.2578037500 -2.5079605200
333 1 -2.7874750000 0.8500025000 -3.2332854720
334 1 -2.7900281250 1.4202362500 -2.4084632560
335 1 -2.2426784375 0.3527478125 -4.8424549040
336 1 -2.2450434375 0.9629446875 -4.1198110160
337 1 -6.1386396875 2.0315350000 -5.6234320096
338 1 -4.9851512500 2.2010490625 -5.6637127296
339 1 -3.3465421875 1.9007746875 -3.9858484800
340 1 -6.1938234688 2.0230693750 -2.4424493040
341 1 -3.9464325000 1.8565384375 -3.2153599040
342 1 -2.7673859375 0.2941603125 -2.3768085680
343 1 -2.2439146875 -1.2880918750 -4.0161432080
344 1 -2.2633184375 -0.1816346875 -4.0294967200
345 1 -2.2563443750 1.5707631250 -4.8248531360
346 1 -6.6856524969 -1.9608671875 -4.0177751600
347 1 -6.7172616088 -0.3043325000 -4.7969415760
348 1 -6.6967067219 0.8720668750 -4.8574792240
349 1 -5.5675862500 2.1631687500 -4.8705996000
350 1 -5.0430937500 2.2367121875 -2.3662397360
351 1 -3.9244890625 -1.5815131250 -6.4741422428
352 1 -4.9805690625 0.5526171875 -6.4537665968
353 1 -3.9087537500 0.6689321875 -6.4105395558
354 1 -6.2484294375 1.4927181250 -6.4691041350
355 1 -3.8913656250 1.8434503125 -6.4567328638
356 1 -2.2106031250 -0.7661928125 -4.8455245280
357 1 -2.2369003125 2.1542193750 -4.0687542320
358 1 1.7270815625 -2.2212590625 -2.4716819680
359 1 -1.7480440625 1.0294200000 -3.2678284560
360 1 -2.2389562500 -1.8829968750 -4.8091164560
361 1 -1.7330209375 -1.7733603125 -5.6987880408
362 1 -1.0646665625 -1.2425790625 -4.0407261040
363 1 -0.5939778125 -1.8751896875 -5.6485342808
364 1 -0.5320309375 -1.2932384375 -3.1940668160
365 1 -1.1570896875 -1.7986631250 -4.8772439760
366 1 -0.0025800000 -1.9620765625 -4.8789147840
367 1 -0.0043134375 -1.3897465625 -4.0928838080
368 1 0.5708250000 -2.0910900000 -5.6248541392
369 1 1.1764665625 -2.1042453125 -4.8746147200
370 1 1.6709396875 -1.7486353125 -6.4261688638
371 1 1.0866637500 -1.5778984375 -4.0376953360
372 1 -1.6709128125 -0.6433471875 -5.6923677344
373 1 -1.1369603125 -0.6753418750 -4.8424678560
374 1 -0.5739425000 -0.1484171875 -3.1963204640
375 1 -0.5623190625 -0.7750615625 -5.6341238856
376 1 0.0196725000 -0.7958628125 -4.8510809360
377 1 0.5519587500 -0.9964175000 -5.6908316272
378 1 -0.0324784375 -0.2617625000 -4.0132419600
379 1 1.1282931250 -1.0059043750 -4.8708715920
380 1 1.7154446875 -0.4735912500 -6.4398384046
381 1 1.1483553125 -0.4824196875 -4.0008728000
382 1 1.6484453125 -1.0974137500 -5.7654040624
383 1 -1.6720953125 0.4661200000 -5.6234864080
384 1 -1.1289381250 -0.1126868750 -4.0343278160
385 1 -1.0911518750 0.4456143750 -4.8555493760
386 1 -0.5648318750 0.3072081250 -5.7079943224
387 1 -0.0137465625 0.3057703125 -4.8532827760
388 1 0.0282187500 0.8280725000 -4.0143040240
389 1 0.5202731250 0.1860421875 -5.7295101848
390 1 1.0511484375 0.0396540625 -4.8870486400
391 1 1.6635490625 0.0898968750 -5.6262205752
392 1 1.1132834375 0.6232446875 -4.1155109520
393 1 -1.6910690625 1.5286500000 -5.6453882400
394 1 -1.1300131250 0.9770809375 -4.0375528640
395 1 -1.1297578125 1.5612628125 -4.8273787760
396 1 -0.5825962500 1.4889959375 -5.6924778264
397 1 -0.0249668750 1.3661503125 -4.8983686880
398 1 -0.0552146875 1.9280259375 -4.0703343760
399 1 0.5747621875 1.3427959375 -5.6402203920
400 1 1.1532600000 1.1952118750 -4.8845230000
401 1 1.7250390625 1.1563103125 -5.6378864416
402 1 -1.6408128125 -1.2498353125 -3.2746930160
403 1 -0.5679628125 -0.6704640625 -2.4250418160
404 1 0.5165643750 -1.4924225000 -3.2183906720
405 1 0.5792906250 -2.0879187500 -2.4220110480
406 1 1.6788409375 -1.6642343750 -3.2987578320
407 1 -1.7221500000 -0.6941275000 -2.4563079440
408 1 -0.5640256250 0.5564603125 -2.4393278720
409 1 -0.5574143750 0.9767853125 -3.2226000720
410 1 0.5634209375 -0.3609715625 -3.2749391040
411 1 1.7386915625 -0.5195743750 -3.2365105200
412 1 -1.5475296875 1.5468443750 -2.3988917280
413 1 -1.6881396875 -0.1050946875 -3.2409660080
414 1 -0.5762671875 1.9027768750 -3.0648447120
415 1 -1.6408665625 0.4574662500 -2.4694412720
416 1 0.4515537500 1.3343975000 -2.4025312400
417 1 0.6266578125 0.7641906250 -3.2222374160
418 1 1.6504609375 0.5936553125 -3.1923830560
419 1 1.6423446875 0.0068934375 -2.4000056000
420 1 -1.6779809375 2.0916275000 -3.2829563920
421 1 0.5103293750 1.8924434375 -3.2113965920
422 1 1.0161168750 1.7528815625 -4.0766679040
423 1 1.7036331250 1.1590650000 -2.4077638480
424 1 2.1715537500 -1.2327696875 -4.9017491600
425 1 2.1475140625 0.4651121875 -4.0877030080
426 1 1.6014812500 1.6931787500 -3.2956104960
427 1 -1.6897387500 -1.7813018750 -2.4115328800
428 1 -0.5618756250 -1.8784146875 -2.4556344400
429 1 0.6098071875 -0.9312590625 -2.4487957840
430 1 0.4902537500 0.1767165625 -2.4632113600
431 1 1.6305734375 -1.1206068750 -2.4727958400
432 1 -1.0754434375 2.1265515625 -4.0372290640
433 1 1.6488350000 2.2212590625 -2.4495599520
434 1 0.5565275000 -0.4061350000 -6.4441502549
435 1 2.1839028125 1.6228200000 -4.0299241360
436 1 2.2172278125 2.1828681250 -4.8379087520
437 1 -0.5709459375 0.9069506250 -6.4436904589
438 1 0.5964368750 0.8054034375 -6.4414879713
439 1 -1.6848743750 2.0766984375 -6.4733931251
440 1 -0.5530203125 2.0700334375 -6.4503042682
441 1 2.3080653125 1.0562546875 -4.8269254560
442 1 6.6674590625 -1.4308518750 -4.8834868400
443 1 6.6755215625 0.2899006250 -4.0835324640
444 1 6.7012812500 1.4373959375 -4.0643505520
445 1 2.2514396875 -0.0808668750 -4.9171879440
446 1 2.8262556250 -1.7534862500 -6.4392274587
447 1 2.2800078125 -1.7593853125 -4.0058852240
448 1 3.3911009375 -1.9234303125 -4.0928967600
449 1 4.4387825000 -2.0776256250 -4.1096955040
450 1 6.2039459375 -2.0248296875 -6.4520249414
451 1 5.6022012500 -2.1304350000 -4.0029580720
452 1 2.7837796875 -0.7009134375 -3.2009702320
453 1 2.7757440625 -1.1982218750 -5.6507633200
454 1 3.3498612500 -1.3719687500 -4.9095980720
455 1 3.2984225000 -0.8041000000 -4.1092810400
456 1 3.9582575000 -1.4733143750 -5.6305996464
457 1 4.5375615625 -1.4853543750 -4.8446308400
458 1 4.4272128125 -0.9336643750 -4.0206764080
459 1 5.0562625000 -1.5699434375 -5.7167874352
460 1 5.5929562500 -1.5581990625 -4.8104893680
461 1 5.5859553125 -0.9618025000 -4.0592863200
462 1 6.0989318750 -1.4300859375 -5.7005844832
463 1 2.2546512500 -0.6536537500 -4.1210932640
464 1 2.8294134375 -0.0978384375 -5.6563067760
465 1 3.4013806250 -0.2199315625 -4.8484128240
466 1 3.9431537500 0.2308293750 -6.4757897994
467 1 3.3261709375 0.3223925000 -4.0097060640
468 1 3.9072084375 -0.3247843750 -5.7201148040
469 1 4.4599465625 -0.4051943750 -4.8860513360
470 1 5.0363481250 0.1242968750 -6.4571326921
471 1 4.5198643750 0.1557003125 -4.0526937520
472 1 5.0588021875 -0.4396750000 -5.6470227824
473 1 5.6122793750 -0.4042403125 -4.8505240000
474 1 5.5688762500 0.1838250000 -4.0695702080
475 1 6.1836418750 -0.3674350000 -5.6749188000
476 1 2.8046615625 1.0618715625 -5.8341921344
477 1 3.2998737500 0.8674040625 -4.8458742320
478 1 3.3915175000 1.4649428125 -4.0757742160
479 1 3.8916612500 0.8094481250 -5.6599436976
480 1 4.4168525000 0.7219834375 -4.8382973120
481 1 5.0418575000 1.2211193750 -6.4756492197
482 1 4.4814734375 1.2890459375 -4.0681195840
483 1 4.9805556250 0.6937646875 -5.6376144496
484 1 5.5879575000 0.7248725000 -4.9291814960
485 1 5.6238221875 1.2334550000 -4.0267508960
486 1 6.1915565625 0.7344265625 -5.6580203256
487 1 2.8702231250 -1.8077200000 -3.2390491120
488 1 3.9252818750 -1.9873659375 -3.1898444640
489 1 4.9850706250 -2.1080884375 -3.2837464640
490 1 6.1700565625 -2.0277590625 -3.2479600880
491 1 2.8541787500 -0.1166778125 -2.4100045440
492 1 2.7362109375 -1.2621709375 -2.4047978400
493 1 3.8517115625 -0.8939162500 -3.2565472640
494 1 3.9582171875 -1.4183953125 -2.3896051440
495 1 5.0211368750 -1.0221771875 -3.2722321360
496 1 5.0755856250 -1.5643668750 -2.4240445120
497 1 6.1458018750 -0.8856925000 -3.2805084640
498 1 6.1321359375 -1.4548378125 -2.4665529760
499 1 2.7961287500 1.5028096875 -3.3186650560
500 1 2.7246278125 0.4025606250 -3.2965171360
501 1 3.9234006250 0.2243928125 -3.2904296960
502 1 3.9271631250 -0.3260340625 -2.4575124800
503 1 5.0485762500 0.1198221875 -3.1882513680
504 1 5.0090968750 -0.4764131250 -2.4517229360
505 1 6.1404134375 0.1624728125 -3.2291537840
506 1 6.1714943750 -0.3736834375 -2.3792564960
507 1 3.9198262500 1.3299900000 -3.2237657520
508 1 3.8686293750 0.7648759375 -2.4457650160
509 1 5.0229240625 1.2772478125 -3.2438284000
510 1 5.0184090625 0.7114618750 -2.4511400960
511 1 6.1643187500 1.3051037500 -3.2094408400
512 1 6.1601665625 0.7348028125 -2.4314530560
513 1 6.6796468750 1.9670215625 -4.9257880720
514 1 2.7520134375 1.9868284375 -5.7445008296
515 1 3.3074928125 2.0268184375 -4.8833702720
516 1 3.9066843750 1.8539315625 -5.6537707744
517 1 4.4557943750 1.8758078125 -4.8434004000
518 1 4.9895318750 1.8135250000 -5.7183883024
519 1 5.5299478125 1.7932746875 -4.8434392560
520 1 6.0831965625 1.9213475000 -5.6568144944
521 1 3.9025053125 1.9086490625 -2.4518524560
522 1 5.0252084375 1.8377393750 -2.4213245920
523 1 6.1223265625 1.8781728125 -2.4504147840
524 1 2.7963034375 0.9535518750 -2.4666695440
525 1 2.7322468750 2.0206775000 -2.4506738240
526 1 3.8860712500 -0.9299018750 -6.4585215350
527 1 6.1368928125 1.3297078125 -6.4130123517
528 1 -2.7977412500 6.7023159375 -3.2514700800
529 1 -4.4518034375 2.2596768750 -4.8091553120
530 1 -3.9429118750 2.4352512500 -5.6992594936
531 1 -6.1886164375 6.5730337500 -5.6515339640
532 1 -5.5776200313 6.6232765625 -4.9321216000
533 1 -4.9800450000 6.6615734375 -5.6654107368
534 1 -6.1344794375 6.5531193750 -2.4090849520
535 1 -4.9771559375 6.6753737500 -2.4528238560
536 1 -3.9691687500 2.9859065625 -3.2541122880
537 1 -6.1520301563 2.5897825000 -6.4239791986
538 1 -5.6023329375 2.7192796875 -4.0583278720
539 1 -4.5096653125 2.8534396875 -4.0947618480
540 1 -3.3669537500 2.4377506250 -4.8686179440
541 1 -2.8098753125 3.1423325000 -6.4685597106
542 1 -2.8233800000 2.5547509375 -5.6915349208
543 1 -6.2330152813 3.1848890625 -5.6743333696
544 1 -5.6489422500 3.2609587500 -4.9019304880
545 1 -4.9927165625 3.8983934375 -6.4318251317
546 1 -5.5507557813 3.7919953125 -4.0385631200
547 1 -5.0491943750 3.3229728125 -5.6400649680
548 1 -4.4824006250 3.4308759375 -4.8820880240
549 1 -3.9557178125 4.0673296875 -6.4417156674
550 1 -4.4353156250 3.9789378125 -4.0526937520
551 1 -3.8753481250 3.5006703125 -5.6352351672
552 1 -3.3410462500 3.5726550000 -4.8013323040
553 1 -3.3659459375 4.1893421875 -4.1036598720
554 1 -2.8123209375 3.7102953125 -5.6781036968
555 1 -6.7067118409 4.2409690625 -4.8341397200
556 1 -6.1604245625 4.2668093750 -5.7039170328
557 1 -5.6356109063 4.3693240625 -4.7934056800
558 1 -5.6182295000 4.9750462500 -4.0666689600
559 1 -5.1171881250 4.4711803125 -5.6700048112
560 1 -4.5418481250 4.5303187500 -4.8796789520
561 1 -3.8631871875 5.1844562500 -6.4495073316
562 1 -4.4421821875 5.0777356250 -4.0587164320
563 1 -3.9481928125 4.6209950000 -5.6270935400
564 1 -3.3689693750 4.7598312500 -4.8999358800
565 1 -2.8154115625 5.3519546875 -6.4336079745
566 1 -3.3194253125 5.2892687500 -4.0342371520
567 1 -2.7641206250 4.7831184375 -5.6307485944
568 1 -6.6822739063 5.3128381250 -4.9261636800
569 1 -6.1663746875 5.9861509375 -6.3996581921
570 1 -6.6989936500 5.8504456250 -4.0644800720
571 1 -6.0900859688 5.3909906250 -5.6661243920
572 1 -5.5457745000 5.5510581250 -4.8518580560
573 1 -5.6480446250 6.0963921875 -4.0346904720
574 1 -4.9807437500 5.5425790625 -5.6817976072
575 1 -4.4562915625 5.6879056250 -4.7831088400
576 1 -4.5287196875 6.2838184375 -4.0649722480
577 1 -3.9514850000 5.7682081250 -5.6806552408
578 1 -3.3758896875 5.8511846875 -4.8676594960
579 1 -2.7233915625 6.5265937500 -6.4487772274
580 1 -3.3380496875 6.3933743750 -4.0202619440
581 1 -2.8112728125 5.9364993750 -5.6831757000
582 1 -6.1481185000 2.6023868750 -3.2169659520
583 1 -5.0263909375 2.7667812500 -3.2216804800
584 1 -3.8780221875 2.4440931250 -2.4476042000
585 1 -3.3800687500 2.9814318750 -4.0386926400
586 1 -2.8318187500 3.1790034375 -3.2693049840
587 1 -6.1600026250 3.7251840625 -3.2953514560
588 1 -6.1801924688 3.1794065625 -2.4554660640
589 1 -4.9960356250 3.9211834375 -3.2440744880
590 1 -5.1043150000 3.3525353125 -2.4505054480
591 1 -3.8675812500 4.0641315625 -3.2130285440
592 1 -3.9480584375 3.5342775000 -2.3817173760
593 1 -2.8313215625 4.2887528125 -3.2100236800
594 1 -2.7606134375 3.6846162500 -2.4092403760
595 1 -6.1527974375 4.8037181250 -3.2596298400
596 1 -6.1465422813 4.2590425000 -2.4308831680
597 1 -5.0330290625 5.0228568750 -3.2975403440
598 1 -5.0575121875 4.4745396875 -2.4444180080
599 1 -3.9024515625 5.2049215625 -3.2499028880
600 1 -3.9799725000 4.6659300000 -2.4465809920
601 1 -2.7878109375 5.4386534375 -3.1707791200
602 1 -2.8090287500 4.8289940625 -2.3997465600
603 1 -6.1798310000 5.9686418750 -3.1785373680
604 1 -6.1174621875 5.3711165625 -2.4622917680
605 1 -5.0636665625 6.0892300000 -3.2398909920
606 1 -4.9949606250 5.5554790625 -2.4083984960
607 1 -3.9504637500 6.2978068750 -3.3040422480
608 1 -3.8970900000 5.7962521875 -2.4457909200
609 1 -2.8096334375 6.0424406250 -2.5028444800
610 1 -2.2815934375 4.3529034375 -4.0510229440
611 1 -2.2725365625 5.4785359375 -4.0319316960
612 1 -2.2636140625 6.0102846875 -4.8755602160
613 1 -2.8127240625 2.5751221875 -2.4977025360
614 1 -2.2756943750 2.7054793750 -4.8629190640
615 1 -2.2439012500 3.7673509375 -4.8689028880
616 1 -6.6807558719 2.4949137500 -4.0568513440
617 1 -5.1139765625 2.7683534375 -6.4518770295
618 1 2.2298590625 6.6363512500 -4.8474025680
619 1 1.6417937500 2.2676721875 -5.6785971680
620 1 -2.1932687500 4.9052518750 -4.8527517440
621 1 1.1383981250 2.3330590625 -4.8052826640
622 1 -1.6940387500 3.2270693750 -6.4419337791
623 1 -2.2272790625 3.2636193750 -3.9932829280
624 1 -1.7152700000 2.6425112500 -5.6824581592
625 1 -1.1644400000 2.6637828125 -4.8867507440
626 1 -1.1457753125 3.2200818750 -4.0554784320
627 1 -0.5606259375 2.6184984375 -5.6189182376
628 1 0.0497053125 2.4921456250 -4.9020211520
629 1 -0.0887815625 2.9843746875 -4.0123094160
630 1 0.5909678125 2.4560256250 -5.6967623480
631 1 1.0681200000 3.4732040625 -4.8137791760
632 1 -1.7087528125 4.3665828125 -6.4687309749
633 1 -1.6849684375 3.8123934375 -5.6778485424
634 1 -1.1100315625 3.7641931250 -4.8965942640