ITEM: TIMESTEP
86000
ITEM: NUMBER OF ATOMS
2304
ITEM: BOX BOUNDS pp pp pp
-6.7187500000 6.7187500000
-6.7187500000 6.7187500000
-6.4760000000 6.4760000000
ITEM: ATOMS id type x y z
1 1 -6.3247356250 -6.5335516875 -6.4513963808
2 1 -6.7156734441 -6.5804902188 -4.0374362960
3 1 -5.5746019688 -6.5304919688 -4.0718627120
4 1 -3.9591846875 -5.7195778125 -5.6465021120
5 1 -4.4492503125 -6.3805375313 -4.0680289200
6 1 -3.4012865625 -6.1858120313 -4.0665782960
7 1 -6.7148716688 -5.4858902813 -4.0554525280
8 1 -6.1555548125 -6.0232975625 -5.6172746288
9 1 -5.6188516563 -5.9321456250 -4.8051401920
10 1 -5.6208054688 -5.3542121875 -4.0475129520
11 1 -5.0874375000 -5.9176156563 -5.6955461552
12 1 -4.5407193750 -5.8129966563 -4.8613907280
13 1 -4.4527575000 -5.2677015625 -4.0212203920
14 1 -3.3697487500 -5.6441101250 -4.9182888640
15 1 -2.7424996875 -5.5488086875 -5.6273862552
16 1 -6.1795273125 -4.9439787500 -5.6587456376
17 1 -5.6186366563 -4.7995525000 -4.8751716560
18 1 -5.5741665938 -4.2748450000 -4.0237330800
19 1 -5.0292800000 -4.7948225000 -5.6486210592
20 1 -4.4827903125 -4.7107306250 -4.8126394000
21 1 -4.5164243750 -4.0982896875 -4.0748934800
22 1 -3.9524659375 -4.5710612500 -5.7080746248
23 1 -3.4187956250 -4.5282090625 -4.8346837040
24 1 -2.7552518750 -3.8817846875 -6.4606639254
25 1 -3.9431134375 -4.0482484375 -3.2684631040
26 1 -2.8580621875 -4.4337703125 -5.6481625584
27 1 -6.7054897944 -3.8119903125 -4.8321710160
28 1 -6.1711476875 -3.8112109375 -5.7093335592
29 1 -5.6414468125 -3.6986987500 -4.8569740960
30 1 -5.5806004688 -3.1718278125 -4.0119079040
31 1 -5.0549993750 -3.6818481250 -5.6395546592
32 1 -4.4777109375 -3.5569600000 -4.8821139280
33 1 -4.4420343750 -2.9931628125 -4.0549733040
34 1 -3.8862190625 -3.4679096875 -5.6253294776
35 1 -3.3124646875 -3.3967984375 -4.8162789120
36 1 -3.3869084375 -2.8072953125 -4.0582372080
37 1 -2.8140409375 -3.2904943750 -5.7061020352
38 1 -6.1366146563 -6.5627890000 -3.2633082080
39 1 -5.0471115625 -6.4447472813 -3.2391138720
40 1 -3.9508668750 -6.2639645313 -3.1793792480
41 1 -2.8681940625 -6.1214356563 -3.2530113680
42 1 -2.8048093750 -6.6840442969 -2.4285906640
43 1 -6.1609889375 -5.4760392500 -3.2031979760
44 1 -6.1723315313 -6.0433691563 -2.4043186160
45 1 -5.0386996875 -5.3721109375 -3.2578036080
46 1 -5.0369528125 -5.9003565313 -2.3864707600
47 1 -3.8887587500 -5.1086418750 -3.2584512080
48 1 -3.9077459375 -5.6770346875 -2.4347817200
49 1 -2.8138393750 -4.4022728125 -2.4309090720
50 1 -2.2404746875 -4.9138115625 -4.0548696880
51 1 -6.1655899375 -4.3193500000 -3.2388030240
52 1 -6.1532140000 -4.8884550000 -2.4514638960
53 1 -5.0237975000 -4.2383890625 -3.1888471600
54 1 -5.0163665625 -4.8223962500 -2.4335901360
55 1 -3.9033115625 -4.6004356250 -2.3805387440
56 1 -3.3656771875 -3.9631890625 -4.0429279440
57 1 -6.1776742813 -3.1890815625 -3.2701857200
58 1 -6.1715024375 -3.7599065625 -2.4441460160
59 1 -5.0100509375 -3.0801168750 -3.2458100560
60 1 -5.0864968750 -3.6514525000 -2.4496247120
61 1 -3.9011884375 -2.9594481250 -3.1773069280
62 1 -3.9217343750 -3.5372606250 -2.3972986320
63 1 -2.8077521875 -2.7942206250 -3.2482061760
64 1 -2.8032909375 -3.8708868750 -3.2549282640
65 1 -3.3022790625 -5.1091390625 -4.0730283920
66 1 -2.2743371875 -4.3772387500 -4.9040805200
67 1 -2.7203681250 -5.5570015313 -2.4167654880
68 1 -6.6995910813 -2.7040415625 -4.8925920960
69 1 -6.1234700938 -2.6450240625 -5.6749395232
70 1 -5.5667558125 -2.6211725000 -4.8400069760
71 1 -5.0243753125 -2.5582715625 -5.7170218664
72 1 -4.5074212500 -2.4202953125 -4.8327927120
73 1 -3.9415950000 -2.3867284375 -5.6411879064
74 1 -3.3684990625 -2.2612625000 -4.8697965760
75 1 -6.1352789688 -2.6762393750 -2.4039041520
76 1 -5.0217415625 -2.5354815625 -2.4272436560
77 1 -3.9420518750 -2.3518043750 -2.4595329920
78 1 -2.7937771875 -2.2565190625 -2.4145766000
79 1 -5.0882034375 -6.4602340000 -6.4586349946
80 1 -2.8089078125 -4.9925553125 -3.2052573440
81 1 -2.7905118750 -3.3409656250 -2.3835047520
82 1 -2.2857053125 -6.5944675031 -4.8279875200
83 1 -2.2545571875 -6.0537093125 -4.0112732560
84 1 -2.2615715625 -3.2976700000 -4.8120824640
85 1 -6.7137244422 -4.3713531250 -4.0297428080
86 1 -2.8086525000 -6.6831152281 -5.7283587520
87 1 -2.8641359375 -6.0878768438 -6.4573805934
88 1 -3.8914059375 -5.1725506250 -6.4507007289
89 1 -2.7973515625 -4.9966134375 -6.4491055606
90 1 -6.1612335000 -3.2145590625 -6.4572264646
91 1 -2.8118237500 -2.7134478125 -6.4751046036
92 1 -3.9851190625 -6.2856943125 -6.4604180964
93 1 -2.1941825000 -5.4915044688 -4.8252805520
94 1 -1.7066700000 -4.9482384375 -3.0977427920
95 1 -1.6356662500 -5.3961250938 -5.6897630872
96 1 -1.7272965625 -6.5234695313 -5.6542551792
97 1 -1.1388146875 -6.3990409688 -4.8930454160
98 1 -1.1375650000 -5.8810979063 -4.0193164480
99 1 -0.5294509375 -6.3761784063 -5.6256066504
100 1 0.0286756250 -6.3050349063 -4.8367689760
101 1 -0.0076728125 -5.7350900625 -4.0622393760
102 1 0.5915859375 -6.3127104063 -5.6526478360
103 1 1.1793287500 -6.3460663125 -4.8901053120
104 1 1.0891900000 -5.7946880625 -4.0738832240
105 1 1.6612915625 -6.1545456563 -5.9612978816
106 1 -1.7197312500 -4.8151803125 -6.4627962131
107 1 -1.0922268750 -5.3136712500 -4.7985605760
108 1 -0.5808359375 -5.2437425000 -5.7101223360
109 1 -0.5556540625 -4.1050621875 -5.6922485760
110 1 -1.1821103125 -4.7352540625 -3.9978938400
111 1 -0.0197128125 -5.1750231250 -4.8677760640
112 1 0.6415196875 -4.6666421875 -6.4451305918
113 1 -0.0039506250 -4.6201618750 -4.0421508240
114 1 0.5349737500 -5.2083481250 -5.6357532472
115 1 1.1343668750 -5.2125540625 -4.8657555520
116 1 1.0688187500 -4.6876181250 -4.0507509520
117 1 1.6958393750 -5.2975059375 -5.6861676120
118 1 -2.1933896875 -3.8752271875 -3.9979067920
119 1 -1.6621650000 -4.2878121875 -5.6042034704
120 1 -1.0742206250 -4.2272090625 -4.8473507600
121 1 -1.1376993750 -3.6395603125 -4.0504012480
122 1 0.0101721875 -4.0609334375 -4.8498375440
123 1 1.1132296875 -3.5760546875 -4.0278129600
124 1 -0.0429596875 -3.4970287500 -4.0385113120
125 1 0.5543371875 -4.0894343750 -5.6627542816
126 1 1.1366781250 -4.0908990625 -4.8709234000
127 1 1.1315853125 -2.9936331250 -4.8151391360
128 1 1.6828587500 -4.2265237500 -5.6839644768
129 1 -1.6473703125 -2.6016075000 -6.4473974508
130 1 -2.2362687500 -2.7218731250 -4.0181378160
131 1 -1.7324834375 -3.1514834375 -5.6566448232
132 1 -1.1429265625 -3.1071396875 -4.8887324000
133 1 -1.0819203125 -2.5578953125 -4.0445728480
134 1 -0.5443396875 -2.9678062500 -5.5921063024
135 1 0.0577946875 -2.9472603125 -4.8509514160
136 1 0.5875950000 -2.9415628125 -5.7011453048
137 1 1.1445793750 -2.4156728125 -4.0177492560
138 1 1.7095993750 -2.5167496875 -3.2325342560
139 1 1.6556612500 -3.1062931250 -5.6922964984
140 1 -1.7041034375 -5.8759164063 -3.1662070640
141 1 -1.7045065625 -6.3765842188 -2.4382010480
142 1 -0.5337912500 -5.7839649375 -3.2474290560
143 1 -0.6013550000 -6.3399804688 -2.4403122240
144 1 0.5644421875 -5.7670310000 -3.2221597040
145 1 0.4956825000 -6.3513190313 -2.4240704160
146 1 1.6570721875 -5.8269044688 -3.2290242640
147 1 1.6383268750 -6.4044240313 -2.4479798080
148 1 -0.5531681250 -4.6782118750 -3.2702116240
149 1 -0.7129534375 -5.2341884375 -2.4297952000
150 1 0.5542834375 -4.6407884375 -3.1896242800
151 1 0.4752575000 -5.2169212500 -2.4229824480
152 1 1.6555000000 -4.7260225000 -3.2376114400
153 1 1.6788409375 -5.2779409375 -2.4053029680
154 1 -1.6648793750 -3.7234775000 -3.1643808320
155 1 -1.6759787500 -4.3489125000 -2.4561266160
156 1 -0.5782559375 -3.5816715625 -3.2035347280
157 1 -0.5383465625 -4.1191446875 -2.4126985600
158 1 0.5402278125 -3.5025784375 -3.2629585040
159 1 0.5907259375 -4.0483559375 -2.4358178800
160 1 1.6996959375 -3.6246715625 -3.2739806560
161 1 1.6998437500 -4.1826637500 -2.4168820560
162 1 -1.7006096875 -3.1296206250 -2.4402992720
163 1 -0.0019887500 -2.3691790625 -4.0581724480
164 1 -0.5340331250 -2.9751162500 -2.4377865840
165 1 0.5593762500 -2.4075700000 -3.2514959840
166 1 0.5806343750 -2.9627806250 -2.4110666080
167 1 2.1747653125 -4.8691318750 -4.0943862400
168 1 2.2026884375 -3.1525718750 -4.8537879040
169 1 -1.6598671875 -2.5748265625 -3.2538791520
170 1 -0.5563528125 -2.4241653125 -3.2072001440
171 1 1.6584159375 -3.0990906250 -2.4349112400
172 1 0.5327834375 -3.5201950000 -6.4468296351
173 1 2.1706937500 -6.5242085938 -4.9557071920
174 1 2.2168784375 -5.9987163438 -4.0567218240
175 1 -1.6580262500 -5.9712514375 -6.4695526239
176 1 -0.4917990625 -5.8404938125 -6.4566924536
177 1 -1.6583084375 -3.7406506250 -6.4340822767
178 1 -0.5904168750 -3.5119309375 -6.4510381285
179 1 -0.5642540625 -2.4519540625 -6.4729544926
180 1 1.7332628125 -2.5267606250 -6.4550778573
181 1 6.6895503125 -3.2270425000 -4.0373844880
182 1 2.2427053125 -4.2752615625 -4.8492935600
183 1 2.2713943750 -3.7248884375 -4.0475518080
184 1 6.6624200000 -6.0289816250 -4.8694727760
185 1 6.6799828125 -4.9207990625 -4.8617922400
186 1 2.7086640625 -6.0590816250 -6.4357846876
187 1 2.8035731250 -6.6003972031 -5.6027476656
188 1 3.4090668750 -6.6984381438 -4.9161129280
189 1 3.2830365625 -6.1671298750 -4.0604001920
190 1 4.4495056250 -6.2571167813 -4.0641303680
191 1 5.5812656250 -6.4467427500 -4.0323850160
192 1 2.2740146875 -5.4434936250 -4.8645380640
193 1 2.8561003125 -5.4545674688 -5.6936953144
194 1 3.3617400000 -5.5708770938 -4.7979647840
195 1 3.8534718750 -4.5388650000 -5.6840758640
196 1 3.3495521875 -4.9809990625 -4.0424875760
197 1 3.8725800000 -5.6429477813 -5.7197495576
198 1 4.4233831250 -5.6787546875 -4.8268736480
199 1 5.0302206250 -5.2577175000 -6.4372112209
200 1 4.5067493750 -5.1332190625 -4.0131253920
201 1 4.9307831250 -5.8310808438 -5.6761764392
202 1 5.5475106250 -5.8960484688 -4.8873206320
203 1 5.6018250000 -5.3828730313 -4.0364389920
204 1 6.1007190625 -6.0401737188 -5.7209722264
205 1 2.7759053125 -4.4457968750 -5.7000081192
206 1 3.3241821875 -4.4199565625 -4.8255914000
207 1 3.4084218750 -3.8594918750 -4.0186170400
208 1 3.9393375000 -3.3849734375 -5.6254952632
209 1 4.4247671875 -4.6028812500 -4.9066709200
210 1 4.4798878125 -4.0701112500 -4.0591827040
211 1 5.0221043750 -4.6943637500 -5.6594139608
212 1 5.5879843750 -4.8303512500 -4.8768424640
213 1 5.5613109375 -4.2626975000 -4.0716684320
214 1 6.1617118750 -4.8999306250 -5.7057303128
215 1 2.2716900000 -2.5982212500 -4.0464379360
216 1 2.7618093750 -3.2773659375 -5.6549908528
217 1 3.3389634375 -3.3467034375 -4.9025262800
218 1 3.9111993750 -2.8416684375 -6.4451862854
219 1 3.3413821875 -2.7844112500 -4.0756317440
220 1 3.9291653125 -3.9465131250 -6.4392396336
221 1 4.5095578125 -3.4965853125 -4.8681775760
222 1 4.4482693750 -2.9525681250 -4.0501940160
223 1 5.0911596875 -3.5692284375 -5.6475033016
224 1 5.6470556250 -3.7073525000 -4.8554587120
225 1 6.1334931250 -3.1823762500 -6.4759830255
226 1 5.5835231250 -3.1331815625 -4.0429668000
227 1 6.1962865625 -3.7676600000 -5.6894211544
228 1 2.7662303125 -5.9855032500 -3.2090393280
229 1 2.7961556250 -6.5558377813 -2.4373591680
230 1 3.8795406250 -6.2061510313 -3.2796018240
231 1 4.9973256250 -6.4245077188 -3.2463799440
232 1 6.1505856250 -6.5220612813 -3.2436859280
233 1 2.7488421875 -4.9204228125 -3.2947168080
234 1 2.8153578125 -5.4469672188 -2.3935814080
235 1 3.8923062500 -5.1329906250 -3.2519622560
236 1 3.9201621875 -5.6919059688 -2.4085668720
237 1 5.0452706250 -5.2730362500 -3.2103604320
238 1 5.0117978125 -5.8508635313 -2.4682496880
239 1 6.1720721875 -5.3773959063 -3.2182222960
240 1 6.1271103125 -5.9745946875 -2.4524093920
241 1 2.8226812500 -3.8346862500 -3.2425591040
242 1 2.7856609375 -4.3957421875 -2.4191486560
243 1 3.9513237500 -3.9875109375 -3.1837829280
244 1 3.8768128125 -4.5816096875 -2.4470343120
245 1 5.0382562500 -4.1197896875 -3.2047781200
246 1 5.0123353125 -4.6978575000 -2.4346781040
247 1 6.1222728125 -4.2958075000 -3.2679838800
248 1 6.1628406250 -4.8354709375 -2.3950320320
249 1 2.8186903125 -2.6884271875 -3.1974213840
250 1 2.7612046875 -3.2723134375 -2.4424493040
251 1 3.8952221875 -2.8429181250 -3.2182222960
252 1 3.9029756250 -3.4052371875 -2.4140067120
253 1 5.0114753125 -3.0200243750 -3.2488019680
254 1 5.0701300000 -3.5639206250 -2.3986456400
255 1 6.1379946875 -3.1748109375 -3.2222762720
256 1 6.1946337500 -3.7560500000 -2.4331497680
257 1 4.4968459375 -2.3688565625 -4.8309535280
258 1 5.0486971875 -2.4476540625 -5.6766971096
259 1 5.5894893750 -2.5747459375 -4.8503815280
260 1 6.1598978125 -2.6235106250 -5.6476872200
261 1 5.0548650000 -2.4505162500 -2.4638978160
262 1 6.1398625000 -2.6048459375 -2.4275415520
263 1 3.9510953125 -2.2613700000 -5.6753241976
264 1 3.9818537500 -2.2797256250 -2.4271400400
265 1 2.8334312500 -3.8522625000 -6.4464299364
266 1 6.1342321875 -5.5415510938 -6.4495324585
267 1 4.9886718750 -4.1201121875 -6.4516306825
268 1 -2.7857415625 -2.1772781250 -5.6163369040
269 1 -6.1753952813 -2.0497831250 -6.4477810890
270 1 -5.0699418750 -1.9616331250 -6.4601727855
271 1 -5.6562213438 -2.0340075000 -4.0645836880
272 1 -4.4909603125 -1.8730262500 -3.9847475600
273 1 -3.2922546875 -1.7170303125 -4.0363612800
274 1 -6.1489314688 -1.5175103125 -5.6034043320
275 1 -5.5360229063 -1.4985096875 -4.9022283840
276 1 -5.0611000000 -0.8444796875 -6.4647381842
277 1 -5.5854137813 -0.9408265625 -4.0870036000
278 1 -4.9660834375 -1.4020015625 -5.6611417576
279 1 -4.4037643750 -1.3330537500 -4.8285962640
280 1 -4.5401012500 -0.7652387500 -4.0421378720
281 1 -3.8824296875 -1.2628428125 -5.7321731160
282 1 -3.3783890625 -1.1298518750 -4.8151002800
283 1 -3.3625462500 -0.5892881250 -3.9821701120
284 1 -2.8161237500 -1.1097090625 -5.6524872312
285 1 -6.1391328438 -0.3953312500 -5.6918198648
286 1 -5.6106413438 -0.3485284375 -4.8543836960
287 1 -4.9882150000 0.2446565625 -6.4616862267
288 1 -5.5387547500 0.1909737500 -4.0124389360
289 1 -5.0209621875 -0.2940931250 -5.6244280184
290 1 -4.4259496875 -0.2247825000 -4.8952343040
291 1 -3.9280096875 0.4612018750 -6.4351264670
292 1 -4.4377343750 0.3333171875 -4.1007068160
293 1 -3.8421306250 -0.1112893750 -5.6484526832
294 1 -3.2648959375 -0.0491140625 -4.8433226880
295 1 -2.8481721875 0.6099818750 -6.4427233330
296 1 -3.4187284375 0.5206359375 -4.0616306320
297 1 -2.7433731250 0.0052675000 -5.7226793000
298 1 -6.6818603000 0.7027946875 -4.8160328240
299 1 -6.1621123125 0.7067990625 -5.7003681848
300 1 -5.6174004063 0.7450959375 -4.8231046160
301 1 -5.5772169063 1.3373671875 -4.0301961280
302 1 -5.0808262500 0.8213134375 -5.6967765952
303 1 -4.5269325000 0.9171496875 -4.8697318160
304 1 -4.4280190625 1.4699684375 -4.0395992800
305 1 -3.9344328125 1.0124350000 -5.5955761432
306 1 -3.3118734375 1.0638334375 -4.9092483680
307 1 -2.8012081250 1.7370253125 -6.4370898606
308 1 -2.7341146875 1.1651790625 -5.6440502984
309 1 -6.1695714688 -2.0895850000 -3.1800786560
310 1 -5.0888081250 -1.9782015625 -3.2600184000
311 1 -3.8838809375 -1.8046025000 -3.2680745440
312 1 -2.7540962500 -1.6743259375 -3.1948568880
313 1 -6.1255703750 -0.9669221875 -3.2285968480
314 1 -6.1596949063 -1.5177656250 -2.4011194720
315 1 -5.0609253125 -0.8402603125 -3.1638627520
316 1 -4.9641753125 -1.4385246875 -2.4294584480
317 1 -3.9600984375 -0.6715121875 -3.2650567280
318 1 -3.8828059375 -1.2329712500 -2.4561654720
319 1 -2.7491781250 -0.5374731250 -3.2768041920
320 1 -2.8266587500 -1.0854006250 -2.4474746800
321 1 -6.1442807500 0.1448696875 -3.2972554000
322 1 -6.1717389375 -0.3930468750 -2.4341082160
323 1 -4.9676421875 0.2860843750 -3.2347231440
324 1 -5.0521909375 -0.2525578125 -2.4115717360
325 1 -3.9242337500 0.4575737500 -3.1562858320
326 1 -3.8385025000 -0.1460925000 -2.4127762720
327 1 -6.1375566250 1.2672368750 -3.2272757440
328 1 -6.1397146875 0.6766184375 -2.4530051840
329 1 -4.9933212500 1.3726809375 -3.2676341760
330 1 -5.0821565625 0.8392525000 -2.4084632560
331 1 -2.8060321875 1.7389468750 -3.1563764960
332 1 -3.9298103125 1.0320268750 -2.3914572800
333 1 -2.8537890625 0.5799221875 -3.2404349760
334 1 -2.7263343750 1.1316390625 -2.4290957920
335 1 -2.2567340625 -0.9924668750 -4.8567798160
336 1 -2.2684650000 0.7022975000 -3.9767173200
337 1 -6.1844521563 1.8245437500 -5.6464179240
338 1 -5.5894893750 1.8485162500 -4.9058160880
339 1 -5.0106825000 1.9655837500 -5.6605783456
340 1 -4.4635612500 2.0379715625 -4.8157867360
341 1 -3.9365425000 2.1270487500 -5.7037279336
342 1 -3.4035037500 2.2079559375 -4.8353701600
343 1 -3.3148296875 1.6071921875 -4.0862005760
344 1 -6.1725210000 1.8274059375 -2.4357013120
345 1 -5.0091103125 1.9106512500 -2.4321006560
346 1 -3.8640068750 1.5803037500 -3.2431678480
347 1 -3.9418503125 2.1252212500 -2.4009251920
348 1 -2.7361303125 0.0112068750 -2.4440553520
349 1 -2.2843346875 1.7924281250 -4.0411405680
350 1 -6.6943817656 -2.1309321875 -4.0966398880
351 1 -6.6807483469 -1.0090084375 -4.0442749520
352 1 -6.6830724969 -0.4283203125 -4.8277414320
353 1 -6.6946337188 1.2936684375 -4.0388610160
354 1 -6.1295398125 -0.9880325000 -6.4683078849
355 1 -3.9416487500 -0.6667284375 -6.4567389513
356 1 -5.0071484375 1.4054281250 -6.4694608720
357 1 -3.8700000000 1.5454603125 -6.4613792643
358 1 -2.2068137500 -2.1796162500 -4.8326502400
359 1 -2.2309206250 -1.5694865625 -4.0857731600
360 1 -2.1761628125 -0.4405484375 -4.0413348480
361 1 -2.1569875000 1.2360350000 -4.8601343840
362 1 1.6926681250 -1.3685287500 -3.2036772000
363 1 -1.6470746875 0.7565581250 -3.2830470560
364 1 -1.6822271875 -2.0070518750 -5.6824944248
365 1 -1.1162396875 -1.3902840625 -4.0378766640
366 1 -0.5895434375 -1.8837493750 -5.6604462352
367 1 -0.5542700000 -1.3216318750 -3.2658727040
368 1 -1.1299056250 -1.9719531250 -4.8159680640
369 1 -0.0146871875 -1.7987303125 -4.8528424080
370 1 0.0456337500 -1.2554521875 -4.0138895600
371 1 0.5459253125 -1.8263981250 -5.6591510352
372 1 1.1071156250 -1.8941096875 -4.8734490400
373 1 1.1346221875 -1.3207450000 -4.0628999280
374 1 1.6675265625 -1.9537587500 -5.6588039216
375 1 -1.6723506250 -0.9174721875 -5.6164120256
376 1 -1.0877118750 -0.8404618750 -4.8391650960
377 1 -0.5354306250 -0.2018581250 -3.2178725920
378 1 -0.5685003125 -0.7394656250 -5.6967778904
379 1 0.0020425000 -0.7219968750 -4.8807151120
380 1 0.5844506250 -0.6846271875 -5.6583790960
381 1 0.0200621875 -0.1670953125 -4.0378896160
382 1 1.1453184375 -0.7596890625 -4.8635796160
383 1 1.1136328125 -0.1862034375 -4.0839210240
384 1 1.7112790625 -0.8536843750 -5.6597856832
385 1 -2.2339575000 0.1603900000 -4.7998169200
386 1 -1.6898059375 0.1598928125 -5.6673872120
387 1 -1.0837343750 -0.2493865625 -4.0686376640
388 1 -1.1409512500 0.3025184375 -4.8733195200
389 1 -0.5469331250 0.3985562500 -5.6254136656
390 1 0.0248190625 0.3784671875 -4.8598882960
391 1 0.0272915625 0.9638315625 -4.1063797920
392 1 0.6018925000 0.4298387500 -5.6428664856
393 1 1.1741284375 0.4011900000 -4.8419109200
394 1 1.6969681250 0.2294318750 -5.6951925656
395 1 1.1298653125 0.9569112500 -4.0209743040
396 1 -1.6277381250 1.3085303125 -5.7203673680
397 1 -1.0674884375 0.8509968750 -4.0362706160
398 1 -1.1195587500 1.4358909375 -4.8086631360
399 1 -0.5607200000 1.4676571875 -5.6470357344
400 1 -0.0043537500 1.5801693750 -4.8196334800
401 1 0.0365634375 2.1245493750 -4.0152365680
402 1 0.5374462500 1.5043415625 -5.6613554656
403 1 1.1166696875 1.5136268750 -4.8667010480
404 1 1.6662500000 1.4271700000 -5.7088090032
405 1 1.6949121875 0.8319693750 -6.4382585196
406 1 -1.6841218750 -1.4962521875 -3.2381683760
407 1 -0.5553718750 -0.7758543750 -2.4157163760
408 1 0.6022553125 -1.2612303125 -3.2053221040
409 1 0.5533293750 -1.8541734375 -2.4481740880
410 1 1.7237759375 -0.8152396875 -2.3806812160
411 1 -1.6706037500 -0.9452878125 -2.4054583920
412 1 -0.5575756250 0.3641965625 -2.4273990800
413 1 -0.5043900000 0.9308290625 -3.2236750880
414 1 0.5825290625 -0.1273068750 -3.2221985600
415 1 1.6467656250 -0.2856275000 -3.2520399680
416 1 -1.6299553125 1.3085706250 -2.4555955840
417 1 -1.6264481250 -0.3786284375 -3.2138704240
418 1 -0.5691184375 2.0016231250 -3.2988744000
419 1 -1.6922918750 0.2095712500 -2.4471638320
420 1 -0.5626550000 1.4994234375 -2.3997206560
421 1 0.5499834375 0.9449653125 -3.2386216960
422 1 1.7042512500 0.8464818750 -3.2535035440
423 1 1.7236281250 0.2784518750 -2.4473710640
424 1 -1.7132543750 1.8916103125 -3.2194009280
425 1 0.5963428125 2.0825706250 -3.2365752800
426 1 1.1793287500 2.0440856250 -4.0049656320
427 1 1.6562256250 1.4122409375 -2.4750365360
428 1 2.2112481250 -1.4831506250 -4.0840634960
429 1 2.2363762500 -0.3543737500 -4.0305328800
430 1 2.1935375000 1.2854715625 -4.8593572640
431 1 1.7446309375 2.0148725000 -3.2131969200
432 1 1.7341093750 2.0209193750 -6.4287165222
433 1 -1.6686956250 -2.0399871875 -2.3871054080
434 1 -0.5610290625 -1.8406150000 -2.4119732480
435 1 1.6636834375 -1.9646296875 -2.4294066400
436 1 0.5353634375 -0.7005371875 -2.4167654880
437 1 0.6134487500 0.4063096875 -2.3798652400
438 1 0.5701128125 1.5192437500 -2.4452728400
439 1 -1.1647759375 2.0069981250 -4.0261292000
440 1 0.5827037500 -0.1271456250 -6.4621385106
441 1 -0.5031403125 -0.1524350000 -6.4517172018
442 1 0.6027390625 -1.2501309375 -6.4524802042
443 1 -1.7190459375 1.9014465625 -6.4423338664
444 1 0.5927281250 2.0654512500 -6.4741918231
445 1 -0.4980071875 -1.3211481250 -6.4563204722
446 1 6.6900340625 -1.5433506250 -4.8851446960
447 1 6.6926812500 0.1435259375 -4.0243547760
448 1 6.6942265625 1.8475487500 -4.8479076960
449 1 2.2465350000 -2.0457921875 -4.8861160960
450 1 2.2792821875 -0.9040615625 -4.8596292560
451 1 2.2474621875 0.2113450000 -4.8518451040
452 1 2.7697509375 -1.6208312500 -6.4665139552
453 1 2.8288759375 -2.1642975000 -5.6436254728
454 1 3.3996337500 -2.2094071875 -4.8513658800
455 1 3.3250153125 -1.6472896875 -4.0357654880
456 1 4.4917934375 -1.8329825000 -3.9929461760
457 1 6.1947815625 -2.0823825000 -6.4680958089
458 1 5.6561393750 -2.0343703125 -4.0425911920
459 1 2.7987759375 -0.4575065625 -3.2500324080
460 1 2.8246431250 -1.0361253125 -5.6939051368
461 1 3.3799343750 -1.1008671875 -4.8646675840
462 1 3.3885612500 -0.5576025000 -4.0038129040
463 1 3.9508265625 -1.1397553125 -5.6834982048
464 1 4.4730615625 -1.2786050000 -4.8219259840
465 1 4.5065343750 -0.7079950000 -4.0583796800
466 1 5.0320212500 -1.3318175000 -5.6784223160
467 1 5.5693734375 -1.4471784375 -4.8305779200
468 1 6.2024275000 -0.9481903125 -6.4480572257
469 1 5.6209868750 -0.8727387500 -4.0617601520
470 1 6.1194240625 -1.4970046875 -5.6632179632
471 1 2.2895753125 0.7463321875 -3.9932440720
472 1 2.7932934375 0.1403950000 -5.6971470224
473 1 3.3213468750 -0.0178315625 -4.8555752800
474 1 3.9786153125 0.5182171875 -6.4674233151
475 1 3.4165246875 0.5445412500 -4.0676533120
476 1 3.9098825000 -0.0233812500 -5.6342106640
477 1 4.4778453125 -0.1417118750 -4.8533604880
478 1 5.0436984375 0.3328737500 -6.4242307265
479 1 4.4946825000 0.4377265625 -4.0967435040
480 1 5.0548650000 -0.2356534375 -5.6273448088
481 1 5.6472168750 -0.3166950000 -4.8711176800
482 1 5.5707171875 0.2490775000 -4.0577968400
483 1 6.2129490625 -0.3643443750 -5.6583570776
484 1 2.7823150000 1.2722087500 -5.6415596288
485 1 3.3421346875 1.1301475000 -4.8344764720
486 1 3.3367596875 1.7262350000 -4.1018077360
487 1 3.9058512500 1.0659296875 -5.6150507704
488 1 4.5149731250 1.0214112500 -4.8786946000
489 1 4.4294568750 1.5599190625 -4.0386019760
490 1 5.0870343750 0.8992912500 -5.6398823448
491 1 5.6530621875 0.8195128125 -4.8564689680
492 1 5.5872990625 1.3536265625 -4.0213758160
493 1 6.2218043750 0.7382428125 -5.6582547568
494 1 2.7523628125 -1.5782746875 -3.2360053920
495 1 2.8262421875 -2.1210018750 -2.3953817360
496 1 3.8891484375 -1.7346468750 -3.2642537040
497 1 5.0830703125 -1.8813037500 -3.2573502880
498 1 6.2147900000 -2.0524437500 -3.2290501680
499 1 2.7787406250 0.1258825000 -2.4885843280
500 1 2.8692018750 -1.0193015625 -2.4408303040
501 1 3.9741271875 -0.5682987500 -3.2361090080
502 1 3.9340700000 -1.1617659375 -2.4882087200
503 1 5.0744837500 -0.7685578125 -3.2318996080
504 1 5.0141493750 -1.3311456250 -2.4237207120
505 1 6.1826743750 -0.9652828125 -3.2527264240
506 1 6.1260890625 -1.4859053125 -2.3889834480
507 1 2.8065159375 1.8094400000 -3.2119276240
508 1 2.8822228125 0.7152243750 -3.2350210400
509 1 3.9631218750 0.5333075000 -3.2170695680
510 1 3.8786403125 -0.0159234375 -2.4048885040
511 1 5.0229509375 0.3150556250 -3.2118110560
512 1 5.0511831250 -0.2299290625 -2.3684933840
513 1 6.1319612500 0.1641390625 -3.2335056560
514 1 6.1865981250 -0.4103946875 -2.4330202480
515 1 2.2707762500 1.8642246875 -4.0825740160
516 1 3.8651625000 1.6156309375 -3.2323270240
517 1 3.9632159375 1.0868787500 -2.3637788560
518 1 5.0101450000 1.4433890625 -3.2611581760
519 1 5.0866312500 0.8861225000 -2.4318416160
520 1 6.1732681250 1.3045796875 -3.2579849360
521 1 6.1895678125 0.7247112500 -2.4627321360
522 1 3.9983012500 2.1816318750 -5.6428457624
523 1 4.5565621875 2.1260409375 -4.8263944240
524 1 5.0989534375 2.0225318750 -5.6930334672
525 1 5.6205031250 1.9465428125 -4.8016690560
526 1 6.1460437500 1.8361806250 -5.6938300152
527 1 3.9732940625 2.1737440625 -2.4347687680
528 1 5.0545828125 2.0031012500 -2.4706458080
529 1 6.1452106250 1.8714675000 -2.4551552160
530 1 2.7732984375 1.2612303125 -2.3878695760
531 1 2.8097946875 -0.4542412500 -6.4444652475
532 1 2.8523512500 0.7055493750 -6.4714824460
533 1 3.9060125000 1.6249028125 -6.4381923349
534 1 4.9827593750 1.4521503125 -6.4658878944
535 1 2.8385778125 1.8244362500 -6.4637217889
536 1 -2.8380806250 2.2996400000 -5.6258074064
537 1 -6.1671016563 6.3023218750 -5.6807290672
538 1 -5.6754436875 6.3573081250 -4.8469103920
539 1 -5.0739059375 6.4012218750 -5.6263643424
540 1 -4.4830993750 6.5128606250 -4.9136131920
541 1 -3.8874418750 6.5934990625 -5.6676475472
542 1 -3.3398906250 6.6776581250 -4.8338806800
543 1 -6.2044417813 6.3198846875 -2.4214929680
544 1 -5.0515056250 6.4438456250 -2.4017023120
545 1 -3.9040775000 6.5773740625 -2.4422032160
546 1 -3.9128253125 2.6583406250 -3.2800680960
547 1 -6.1214826875 2.4083090625 -6.4361022706
548 1 -6.6704224344 2.4087525000 -4.0326440560
549 1 -5.5878432813 2.4035253125 -4.0727952560
550 1 -4.5095175000 2.6197884375 -4.0328253840
551 1 -6.1483482813 2.9882581250 -5.6623773784
552 1 -5.6066060625 2.9779784375 -4.8451100640
553 1 -5.6078893438 3.5408618750 -4.0352862640
554 1 -5.0415215625 3.0700656250 -5.6479333080
555 1 -4.4629968750 3.1555953125 -4.8714285280
556 1 -4.4726584375 3.7044634375 -4.0387962560
557 1 -3.9051793750 3.2444843750 -5.6571098000
558 1 -3.3476843750 3.3240209375 -4.8200868000
559 1 -3.3929956250 3.9011615625 -4.0426430000
560 1 -2.8059112500 3.4115931250 -5.6819763448
561 1 -6.6872469906 4.0971475000 -4.8776584400
562 1 -6.1245504688 4.1119825000 -5.6489798296
563 1 -5.5518173438 4.1027509375 -4.8384138800
564 1 -5.0610731250 4.7614975000 -6.4375887717
565 1 -5.6653212188 4.6567925000 -4.0051081040
566 1 -5.0196856250 4.1742653125 -5.7141452272
567 1 -4.5027853125 4.2851918750 -4.8319767360
568 1 -3.9009868750 4.8951603125 -6.4671651040
569 1 -4.4743650000 4.8273681250 -4.0007303280
570 1 -3.9337071875 4.3458487500 -5.6377569216
571 1 -3.3658921875 4.4584012500 -4.8725035440
572 1 -3.3098712500 4.9929046875 -4.0383947440
573 1 -2.7757978125 4.5114256250 -5.6224865136
574 1 -6.6986789438 5.2364325000 -4.8629449680
575 1 -6.1543978438 5.2538340625 -5.6932769648
576 1 -5.5819912500 5.1746334375 -4.8910637600
577 1 -5.6052824688 5.7503093750 -4.1147985920
578 1 -5.0012090625 5.3368912500 -5.6422978928
579 1 -4.4567887500 5.3813559375 -4.8081580080
580 1 -4.5476262500 5.9801175000 -4.0593899360
581 1 -3.9369590625 5.4811025000 -5.7245741776
582 1 -3.4252187500 5.5778659375 -4.8271456400
583 1 -3.3673568750 6.1173950000 -4.0051081040
584 1 -2.8590834375 5.6156521875 -5.6568727784
585 1 -6.1154855313 2.4095184375 -3.2028741760
586 1 -5.0464396875 2.4972115625 -3.1973436720
587 1 -3.3230668750 2.7579125000 -4.0187854160
588 1 -2.7477403125 2.8585996875 -3.2582569280
589 1 -6.1780115625 3.4997296875 -3.2426756720
590 1 -6.1943340938 2.9694456250 -2.3835177040
591 1 -5.0479312500 3.6196325000 -3.2245428720
592 1 -5.0215803125 3.0690578125 -2.4157422800
593 1 -3.9293937500 3.7959862500 -3.1917095520
594 1 -3.8798631250 3.2005437500 -2.4509069600
595 1 -2.7986818750 3.9326859375 -3.2750556720
596 1 -2.8175346875 3.3960325000 -2.3967416960
597 1 -6.2409649063 4.6084443750 -3.2139610880
598 1 -6.1071314375 4.0510165625 -2.4142528000
599 1 -5.0746315625 4.7540128125 -3.2845106320
600 1 -5.0453781250 4.2111915625 -2.4498708000
601 1 -3.8936903125 4.9470290625 -3.2516902640
602 1 -3.9459218750 4.3790393750 -2.4407784960
603 1 -2.7805815625 5.0668378125 -3.1786280320
604 1 -2.8129256250 4.4631581250 -2.4298340560
605 1 -6.1366294375 5.7719571875 -3.2472736320
606 1 -6.1479532188 5.1884740625 -2.4597143200
607 1 -5.0858250000 5.8814190625 -3.2047781200
608 1 -5.0233271875 5.2909618750 -2.4371260320
609 1 -3.9709693750 6.0356950000 -3.2683465360
610 1 -3.9447259375 5.4888559375 -2.4174519440
611 1 -2.7964915625 6.2245053125 -3.2492293840
612 1 -2.8399618750 5.6480768750 -2.4456095920
613 1 -2.2732353125 3.4787134375 -4.8039874640
614 1 -2.2537778125 5.2178081250 -4.0465804080
615 1 -2.8249790625 2.3207100000 -2.3982829840
616 1 -2.2960790625 5.7651846875 -4.8763891440
617 1 -2.7477403125 2.8450143750 -6.4663180432
618 1 -6.2136464688 3.5395046875 -6.4619915054
619 1 -6.1581845313 4.6295950000 -6.4589582765
620 1 -2.7852846875 5.0569343750 -6.4738161633
621 1 -2.2330034375 2.3378965625 -4.9023060960
622 1 -2.2267550000 4.6304012500 -4.8144397280
623 1 -2.1855556250 6.2887096875 -4.0002122480
624 1 1.0739518750 2.5825531250 -4.8723481200
625 1 -1.6562121875 3.0117603125 -6.4553220025
626 1 -2.1829353125 2.8834053125 -4.0755151760
627 1 -1.6419550000 2.4596403125 -5.6279380104
628 1 -1.0625971875 2.5567262500 -4.8433226880
629 1 -0.5469600000 4.2866162500 -6.4295362542
630 1 -1.1252159375 3.1253475000 -4.0321389280
631 1 -0.5333881250 2.5445921875 -5.6963401128
632 1 0.0003493750 2.6989756250 -4.8262390000
633 1 -0.0104946875 3.2406950000 -3.9821442080