ITEM: TIMESTEP
132000
ITEM: NUMBER OF ATOMS
2304
ITEM: BOX BOUNDS pp pp pp
-6.7187500000 6.7187500000
-6.7187500000 6.7187500000
-6.4760000000 6.4760000000
ITEM: ATOMS id type x y z
1 1 -6.1756264063 -6.3517570938 -6.4579269087
2 1 -5.0528762500 -6.6429235313 -5.6281309952
3 1 -5.6011947813 -6.3873772188 -4.0521368160
4 1 -4.4311365625 -6.6495111313 -4.8713767200
5 1 -3.9457740625 -5.3320403125 -5.6743774064
6 1 -4.5559037500 -6.0745360938 -4.0715389120
7 1 -3.9441346875 -6.4740840313 -5.7549608648
8 1 -3.4158393750 -6.4076127500 -4.8405250560
9 1 -2.8116356250 -5.7959458125 -6.4117600228
10 1 -3.3896093750 -5.8815749375 -3.9809267200
11 1 -2.8618246875 -6.3827506875 -5.6545997024
12 1 -6.2101110625 -5.7676316563 -5.6831523864
13 1 -5.6778328750 -5.7230258750 -4.7877327040
14 1 -6.1412022188 -5.1767028125 -6.4322610960
15 1 -5.6092492188 -5.1827362500 -4.0047972560
16 1 -5.1495321875 -5.6010819063 -5.5868775800
17 1 -4.4939165625 -5.5376582500 -4.8631781040
18 1 -4.4640718750 -4.9490446875 -4.0960570480
19 1 -3.3984781250 -4.7685790625 -4.1021056320
20 1 -2.7761875000 -5.2144084375 -5.6607402456
21 1 -6.6660418094 -4.2083965625 -4.0300666080
22 1 -6.2302216250 -4.6093178125 -5.6065957048
23 1 -5.0993296875 -4.4898987500 -5.6506597040
24 1 -5.0423815625 -3.9081625000 -6.4269499989
25 1 -5.6227995938 -4.0289656250 -4.0807348320
26 1 -4.4885012500 -4.3740271875 -4.8522854720
27 1 -3.9375234375 -4.4162478125 -5.7633861408
28 1 -3.9172596875 -3.8403703125 -6.4110929948
29 1 -4.4847925000 -3.8264221875 -3.9869364480
30 1 -3.3889240625 -4.1908203125 -4.8823729680
31 1 -3.3375659375 -5.3668971875 -4.8440868560
32 1 -3.8741925000 -3.7438756250 -3.2751333840
33 1 -2.7689312500 -4.1348262500 -5.6048005576
34 1 -6.1459725313 -3.5374890625 -5.6087716408
35 1 -6.6522659531 -3.0675393750 -3.9929332240
36 1 -5.5986913750 -3.4425934375 -4.8240112560
37 1 -5.5910078125 -4.6167621875 -4.8178590560
38 1 -5.5270869688 -2.8614618750 -4.0557763280
39 1 -5.0368587500 -3.3489743750 -5.6272489640
40 1 -4.4316471875 -3.3482756250 -4.8754695520
41 1 -3.8911775000 -2.6131100000 -6.4663104922
42 1 -4.4560228125 -2.7333487500 -4.0815637600
43 1 -3.9149753125 -3.1820268750 -5.7263913432
44 1 -3.3841403125 -3.0924659375 -4.8542282720
45 1 -2.7484256250 -2.4408009375 -6.4045824130
46 1 -3.3139965625 -2.5595884375 -4.0008598480
47 1 -2.8168762500 -3.0656715625 -5.6823105064
48 1 -6.1508597500 -6.3556365000 -3.2039621440
49 1 -5.0702106250 -6.1383171875 -3.1553144320
50 1 -3.9998465625 -5.9856067188 -3.2766746720
51 1 -3.9397943750 -6.5401992188 -2.4550127440
52 1 -2.7835781250 -5.8285962500 -3.2942505360
53 1 -2.8698065625 -6.3529973750 -2.4165582560
54 1 -6.1886325625 -5.2821468750 -3.2473772480
55 1 -6.1708359375 -5.8204988125 -2.3829866720
56 1 -5.0178715625 -5.0362137500 -3.2644479840
57 1 -5.0594203125 -5.5563619063 -2.3957832480
58 1 -3.9442556250 -4.8550762500 -3.1970457760
59 1 -3.8797825000 -5.4387165938 -2.4396905280
60 1 -2.7633009375 -4.1731500000 -2.4413354320
61 1 -6.1417356875 -4.1273146875 -3.1803506480
62 1 -6.1157663750 -4.7184975000 -2.4340823120
63 1 -5.0728981250 -3.9501950000 -3.2579719840
64 1 -5.0317256250 -4.4923981250 -2.3962624720
65 1 -3.9453843750 -4.2777206250 -2.4138901440
66 1 -3.2979790625 -3.6615978125 -4.0435107840
67 1 -6.0870181875 -2.9881237500 -3.2289206480
68 1 -6.1826098750 -3.5311331250 -2.4259743600
69 1 -5.0063153125 -2.8292925000 -3.1876814800
70 1 -4.9895050000 -3.4136625000 -2.4106521440
71 1 -3.9216268750 -2.6119140625 -3.2529466080
72 1 -3.9139675000 -3.1954375000 -2.4464385200
73 1 -2.7368425000 -2.4504221875 -3.2393988160
74 1 -2.7650612500 -3.5821284375 -3.1792108720
75 1 -2.2875328125 -6.3262957188 -4.8644862560
76 1 -2.2497062500 -5.2080659375 -4.8051013360
77 1 -2.8569334375 -4.7178390625 -3.2423000640
78 1 -2.2607921875 -2.9462121875 -4.8898851280
79 1 -6.1023772500 -2.4411637500 -5.7129588240
80 1 -5.5996763438 -2.2890109375 -4.8437501040
81 1 -5.0000937500 -2.2986859375 -5.6440541840
82 1 -6.1417921250 -2.3825090625 -2.4611260880
83 1 -5.0320212500 -2.2405956250 -2.4187600960
84 1 -2.7935890625 -5.2958934375 -2.4452598880
85 1 -2.8201550000 -2.9919803125 -2.4170115760
86 1 -4.9667553125 -5.0647415625 -6.4317009220
87 1 -2.2732084375 -4.6434356250 -4.0039942320
88 1 -6.7155250403 -6.4088610938 -4.0099132960
89 1 -6.6652041156 -2.5064700000 -4.8804301680
90 1 -3.9503428125 -5.7916659688 -6.4440199578
91 1 -2.2054700000 -4.0973759375 -4.8151132320
92 1 -1.6609959375 -4.6029215625 -3.2832931440
93 1 -1.6911228125 -5.1856521875 -5.6634303760
94 1 -1.7201612500 -5.7576905938 -6.4716929419
95 1 -2.1873428125 -5.7851272813 -4.0378637120
96 1 -1.6892281250 -6.2834811563 -5.5924585968
97 1 -1.0891093750 -6.3229739688 -4.8653281360
98 1 -1.1096687500 -5.7607462813 -4.0525383280
99 1 -0.5293165625 -6.3751840313 -5.6683922872
100 1 0.0097018750 -6.4514216875 -4.8008789840
101 1 0.0074309375 -5.8847408125 -4.0083072480
102 1 1.0379259375 -6.6279076625 -4.8062670160
103 1 0.5217378125 -6.5594027500 -5.7177666064
104 1 1.1686056250 -6.0566937813 -4.0322425440
105 1 -1.1452781250 -5.1663559375 -4.8311089520
106 1 -0.6029137500 -5.2749712500 -5.6861015568
107 1 -0.5600078125 -4.1402415625 -5.6482337944
108 1 -1.0718287500 -4.6296756250 -4.0194200640
109 1 -0.0376518750 -5.3477756250 -4.8708715920
110 1 0.0340909375 -4.7832125000 -4.0747898640
111 1 0.5324475000 -5.4135320313 -5.6494810720
112 1 1.1162665625 -5.5302004375 -4.8996379840
113 1 1.0739384375 -4.9591900000 -4.0971838720
114 1 -1.6516031250 -3.4672915625 -6.4402472992
115 1 -2.2267550000 -3.4979156250 -4.0739091280
116 1 -1.6893759375 -4.0653678125 -5.6975550104
117 1 -1.1367318750 -4.0769106250 -4.8572590400
118 1 -0.5658262500 -3.5638131250 -6.4365528707
119 1 -1.1081100000 -3.5031293750 -4.0407779120
120 1 0.0204921875 -4.2319793750 -4.8981096480
121 1 1.1073037500 -3.8285587500 -4.0231890960
122 1 -0.0207071875 -3.6799668750 -4.0753597520
123 1 0.6371928125 -4.2892096875 -5.6206991376
124 1 1.1410050000 -3.2475750000 -4.8069534720
125 1 1.2053168750 -4.3805443750 -4.8396572720
126 1 -1.6673921875 -2.3940115625 -6.4567954220
127 1 -2.1724809375 -2.4093840625 -4.0522274800
128 1 -1.6517643750 -2.9306381250 -5.6019226232
129 1 -1.0559321875 -2.9740950000 -4.8651209040
130 1 -1.1212653125 -2.3925200000 -4.0764736240
131 1 -0.4785900000 -3.0063046875 -5.6426709104
132 1 0.0736106250 -3.0962015625 -4.8122378880
133 1 0.5911290625 -3.2114012500 -5.6999148648
134 1 1.2375534375 -2.6928078125 -3.9996812160
135 1 1.7876712500 -2.7716053125 -6.4162217278
136 1 1.7996171875 -2.7827987500 -3.2249314320
137 1 1.6519121875 -3.3729065625 -5.7187431872
138 1 -1.6576231250 -5.7222317188 -3.1893522880
139 1 -1.7068715625 -6.3090204688 -2.4206381360
140 1 -0.5696693750 -5.7978982813 -3.2199708160
141 1 -0.5637837500 -6.3804260000 -2.4506608720
142 1 0.5822200000 -5.9793824688 -3.2539050560
143 1 0.5325146875 -6.5259326250 -2.4314401040
144 1 1.7039018750 -6.1228398750 -3.1867230320
145 1 -1.7315562500 -5.1295237500 -2.4344579200
146 1 -0.5094290625 -4.6949550000 -3.2212271600
147 1 -0.5856465625 -5.2296465625 -2.4067924480
148 1 0.5610156250 -4.8565812500 -3.1775141600
149 1 0.5351484375 -5.4449193438 -2.3986585920
150 1 1.6206296875 -5.0167696875 -3.2403313600
151 1 1.6943209375 -5.5684193750 -2.3914831840
152 1 -1.6889862500 -3.4931856250 -3.2315369520
153 1 -1.6444678125 -4.0647093750 -2.4231637760
154 1 -0.5540684375 -3.5690940625 -3.2153987600
155 1 -0.5677746875 -4.1306068750 -2.4024017200
156 1 0.5307946875 -3.7572862500 -3.2468462160
157 1 0.6255156250 -4.3004837500 -2.3955242080
158 1 1.7046946875 -3.9265181250 -3.3020605920
159 1 1.7554750000 -4.4652812500 -2.4403640320
160 1 -1.6165715625 -2.9568815625 -2.3991766720
161 1 0.0266734375 -2.5277012500 -4.0065198720
162 1 -0.4729193750 -3.0210456250 -2.4081783120
163 1 0.6158003125 -2.6375931250 -3.2941339680
164 1 0.6147656250 -3.1866896875 -2.4608152400
165 1 2.2196734375 -6.2605285625 -4.0927024800
166 1 1.7210212500 -5.5852243125 -5.6140521712
167 1 2.1943975000 -3.4571731250 -4.8866341760
168 1 2.1911859375 -5.0986981250 -4.0485361600
169 1 -1.6489559375 -2.3743928125 -3.1741207360
170 1 -0.5797743750 -2.4734540625 -3.2533610720
171 1 1.6475181250 -3.3660668750 -2.4814866320
172 1 1.7335181250 -4.5135890625 -5.7048936136
173 1 1.5935531250 -6.7006682313 -5.6369111560
174 1 1.6141528125 -6.7029784063 -2.4154832400
175 1 0.5906721875 -5.9652153125 -6.4592445157
176 1 -0.5194668750 -4.6961912500 -6.4445687340
177 1 0.5674253125 -4.8456565625 -6.4369973834
178 1 1.6866750000 -6.1298394688 -6.4410593896
179 1 6.7093571875 -5.8495036563 -4.8190765440
180 1 6.6736537500 -5.2606200000 -4.0276445840
181 1 2.3349403125 -2.8898956250 -4.0889852560
182 1 6.1026675000 -6.3963427188 -6.4170962468
183 1 6.6621512500 -4.7371084375 -4.9471847760
184 1 6.6978546875 -3.5900834375 -4.8187786480
185 1 3.3039184375 -6.3874202188 -4.0557892800
186 1 4.4419134375 -6.5338741875 -4.0150293360
187 1 5.5781212500 -6.5152041250 -4.0211556320
188 1 2.7732043750 -4.6640218750 -5.7232815680
189 1 2.2952056250 -5.6707875938 -4.8275730560
190 1 3.3901200000 -5.7985916563 -4.8381030320
191 1 2.7705303125 -5.2090603125 -3.3014000400
192 1 3.9092912500 -5.9305102813 -5.7274624736
193 1 4.4222543750 -5.9900128750 -4.8658073600
194 1 5.0504709375 -4.8982240625 -5.6710772368
195 1 4.5621790625 -5.4441668438 -4.0625113680
196 1 4.9961162500 -6.0172547188 -5.6556384528
197 1 5.5644150000 -5.9977380938 -4.8698613360
198 1 5.6254750000 -5.4042373125 -4.1205881360
199 1 2.2822787500 -4.5250915625 -4.8045703040
200 1 2.3363378125 -3.9640625000 -3.9895916080
201 1 3.3434650000 -4.7186453125 -4.8929418000
202 1 3.3894884375 -5.2603109375 -4.0022586640
203 1 3.4562593750 -4.1724378125 -4.0834418000
204 1 3.9385850000 -4.8186337500 -5.6483827424
205 1 4.5240031250 -4.8780543750 -4.8556400400
206 1 4.5010250000 -4.2951221875 -4.1418294160
207 1 5.7397475000 -4.8438425000 -5.1136179760
208 1 5.5951465625 -4.4182365625 -4.0187983680
209 1 6.1410181250 -5.7844056875 -5.6737051976
210 1 2.9103206250 -2.3937159375 -5.6292720664
211 1 2.8020681250 -3.5093509375 -5.6210332992
212 1 3.3929687500 -3.6028356250 -4.9036272000
213 1 3.3664834375 -3.0402209375 -4.1058746640
214 1 4.6523178125 -3.7041678125 -4.9090411360
215 1 4.5657668750 -2.5920668750 -4.8301505040
216 1 5.1315259375 -2.6411809375 -5.6863489400
217 1 5.7064628125 -3.8539287500 -4.8149060000
218 1 6.2063915625 -3.6733556250 -5.7960938264
219 1 5.5933728125 -3.2709428125 -4.0182284800
220 1 6.1911668750 -4.3676175000 -6.3035557768
221 1 2.7540693750 -6.3035608125 -3.2158779840
222 1 3.8528537500 -6.4976534063 -3.2509131440
223 1 5.0162590625 -6.5730203125 -3.2376891520
224 1 6.1508006250 -6.4978119688 -3.2473254400
225 1 2.8488575000 -5.7406182500 -2.4212857360
226 1 3.9990403125 -5.3349696875 -3.2911679600
227 1 3.8959075000 -5.9075697813 -2.4924310720
228 1 5.0931215625 -5.4557472813 -3.1961002800
229 1 4.9605337500 -6.0135701563 -2.4228270240
230 1 6.1294484375 -5.4280955938 -3.1603916160
231 1 6.1573715625 -5.9950304375 -2.3666542000
232 1 2.9146071875 -4.0591059375 -3.2420280720
233 1 2.7922587500 -4.6515250000 -2.4994640080
234 1 3.9963931250 -4.2251934375 -3.2015919280
235 1 3.8658881250 -4.8137021875 -2.4299894800
236 1 5.0247918750 -4.3418981250 -3.2382460880
237 1 5.0391565625 -4.8686078125 -2.3887891680
238 1 6.1782937500 -4.2253143750 -3.2532056480
239 1 6.1839106250 -4.8023743750 -2.4744536960
240 1 2.8569334375 -2.9295765625 -3.1641736000
241 1 2.7375009375 -3.5209878125 -2.4119862000
242 1 6.1701909375 -3.1016571875 -3.2852100400
243 1 3.9439331250 -3.6801818750 -2.3673018000
244 1 4.4200775000 -3.1898743750 -4.0618637680
245 1 5.1129015625 -3.7759106250 -2.4273990800
246 1 5.0012762500 -3.2279025000 -3.2860260160
247 1 6.1586481250 -3.6666100000 -2.4571886800
248 1 2.2989681250 -2.3339862500 -4.9058031360
249 1 3.4873671875 -2.4550312500 -4.8749514720
250 1 4.0186725000 -3.7114912500 -5.5812330984
251 1 4.0405621875 -2.6111884375 -5.7060476368
252 1 5.6536534375 -2.7236603125 -4.8236615520
253 1 6.1855768750 -2.6484909375 -5.6889121408
254 1 2.8790515625 -2.3684265625 -2.3529250800
255 1 3.8879525000 -3.1271750000 -3.1986259200
256 1 5.0843603125 -2.7001446875 -2.4405065040
257 1 6.2095762500 -2.5729587500 -2.4253656160
258 1 4.0223140625 -2.5493356250 -2.4429026240
259 1 2.8100768750 -5.7333418438 -5.6799804416
260 1 2.8971518750 -4.0284281250 -6.4276696120
261 1 6.1349846875 -5.2477200000 -6.4181783864
262 1 5.1756412500 -3.7496000000 -5.7299052208
263 1 3.8597606250 -6.5628924688 -6.4555256079
264 1 2.7249637500 -6.3394335625 -6.4575060982
265 1 2.8385912500 -2.9413881250 -6.4407038572
266 1 3.9493618750 -4.2213100000 -6.4401521020
267 1 -6.1544784688 -1.8141968750 -6.3866163052
268 1 -6.7070854706 -1.9800021875 -4.0439252480
269 1 -5.5765772813 -1.7662787500 -3.9654749840
270 1 -4.4574875000 -2.1646468750 -4.8271326880
271 1 -4.4232353125 -1.5686534375 -4.0687412800
272 1 -3.8998850000 -2.0467865625 -5.6289288384
273 1 -3.2989331250 -2.0251790625 -4.8625046000
274 1 -3.3351606250 -1.4519218750 -4.0839857840
275 1 -2.7679234375 -1.8539181250 -5.6906619560
276 1 -6.6568048719 -1.4088815625 -4.8811425280
277 1 -6.0976862188 -1.2294640625 -5.6436565576
278 1 -5.5118824375 -1.2444065625 -4.8719595600
279 1 -5.0256115625 -0.5390990625 -6.3975415762
280 1 -5.5896882500 -0.6959012500 -4.0412830400
281 1 -4.9680453125 -1.1507471875 -5.7106999952
282 1 -4.4548403125 -0.9850628125 -4.8439314320
283 1 -3.9098959375 -0.4379281250 -6.4428651574
284 1 -4.4652409375 -0.4587965625 -3.9828436160
285 1 -3.8645578125 -0.9929775000 -5.6495484224
286 1 -3.3228518750 -0.8489946875 -4.8262130960
287 1 -3.3447415625 -0.2776590625 -4.0603742880
288 1 -2.7606403125 -0.7343190625 -5.6450398312
289 1 -6.6755184719 0.3127309375 -4.0086051440
290 1 -6.1549770000 -0.1527709375 -5.6037980728
291 1 -5.5645574375 -0.1256943750 -4.8341397200
292 1 -5.5322845938 0.4604359375 -4.0933241760
293 1 -5.0357165625 0.0550265625 -5.6370626944
294 1 -4.4152937500 0.0624440625 -4.9096369280
295 1 -3.8926825000 0.7752362500 -6.4006641739
296 1 -4.4574068750 0.6049025000 -4.0561260320
297 1 -3.8500990625 0.1584953125 -5.7045685184
298 1 -3.3306590625 0.3105943750 -4.8386081600
299 1 -2.7742390625 0.9066818750 -6.4408420550
300 1 -3.3459375000 0.8337565625 -3.9817556480
301 1 -2.7529271875 0.3068721875 -5.6635184496
302 1 -6.6865415219 0.8954750000 -4.8191931120
303 1 -6.1670640313 1.5025543750 -6.4392932549
304 1 -6.1321157813 0.9085093750 -5.6858464024
305 1 -5.6239767188 1.0728500000 -4.7914240240
306 1 -5.5792231250 1.6455831250 -4.0097837760
307 1 -5.0728443750 1.1361137500 -5.6295751432
308 1 -4.4844700000 1.1759559375 -4.8510809360
309 1 -4.4009828125 1.7525053125 -4.0795302960
310 1 -3.9476418750 1.3540431250 -5.6378825560
311 1 -3.3321103125 1.3508046875 -4.9007259520
312 1 -2.7763218750 1.4704387500 -5.6759096280
313 1 -6.1721743125 -1.8137400000 -3.2239470800
314 1 -4.9691740625 -1.7023296875 -3.2454992080
315 1 -3.8826715625 -1.5197946875 -3.2184554320
316 1 -3.8476803125 -2.0933206250 -2.4042538560
317 1 -2.8110712500 -1.3120509375 -3.2373653520
318 1 -2.7683131250 -1.8843271875 -2.4362971040
319 1 -6.1539960625 -0.6748178125 -3.2081456400
320 1 -6.0741450625 -1.2434390625 -2.4146543120
321 1 -5.0466681250 -0.5257825000 -3.2200226240
322 1 -5.0010343750 -1.1160918750 -2.4758525120
323 1 -3.8750256250 -0.4237246875 -3.2310706800
324 1 -3.8911371875 -0.9640465625 -2.3968971200
325 1 -2.7758515625 -0.2241509375 -3.2509260960
326 1 -2.7076831250 -0.7746987500 -2.4065981680
327 1 -6.0819952500 0.3942428125 -3.2547339840
328 1 -6.1509968125 -0.1228993750 -2.3615899680
329 1 -5.0229240625 0.6082350000 -3.2033274960
330 1 -4.9828131250 0.0232603125 -2.4169468160
331 1 -3.9277946875 0.7539646875 -3.2092724640
332 1 -3.8651759375 0.1636821875 -2.4682755920
333 1 -6.1368296563 1.4830162500 -3.2588397680
334 1 -6.1525851250 0.9514959375 -2.3989694400
335 1 -4.9684215625 1.6781825000 -3.2967243680
336 1 -5.0469234375 1.1565253125 -2.3898641840
337 1 -2.7759590625 2.0714443750 -3.1826820080
338 1 -3.8935693750 1.3282700000 -2.4395869120
339 1 -2.7399331250 0.8873318750 -3.2430383280
340 1 -2.7905118750 1.4532521875 -2.4626155680
341 1 -2.2526087500 2.1071075000 -4.0553230080
342 1 -6.1148391875 2.0801384375 -5.6557757440
343 1 -5.5416021563 2.1849240625 -4.8552255760
344 1 -4.9974331250 2.2373168750 -5.7027966848
345 1 -3.3089440625 1.8904681250 -4.0578356960
346 1 -6.1165014063 2.0342896875 -2.4547796080
347 1 -3.8716528125 1.9175312500 -3.2247112480
348 1 -2.7676546875 0.3284259375 -2.4261038800
349 1 -6.6715960656 -0.8606718750 -4.1012767040
350 1 -6.6849874750 1.9715365625 -4.8907658640
351 1 -5.0221446875 2.2144596875 -2.4443014400
352 1 -5.0265118750 -1.7567515625 -6.4583703852
353 1 -2.7823956250 2.0761475000 -6.4198660320
354 1 1.0887734375 -2.1775603125 -4.8902736880
355 1 1.6481631250 -2.2343606250 -2.3959386720
356 1 -2.2020165625 -1.8269490625 -4.8716228080
357 1 -2.2201975000 -1.3183800000 -4.0096024480
358 1 1.7088200000 -1.6562928125 -3.1727089680
359 1 -1.6165446875 1.0044800000 -3.2322622640
360 1 -1.6202668750 -1.8163603125 -5.6523395784
361 1 -1.0526265625 -1.2560568750 -4.0112603040
362 1 -0.5395828125 -1.9373650000 -5.6903161376
363 1 -0.4802696875 -1.3681121875 -3.2620130080
364 1 -1.0678646875 -1.8087815625 -4.8221850240
365 1 0.0129537500 -1.9722353125 -4.8161234880
366 1 0.1145009375 -1.4004696875 -4.0285382720
367 1 0.5328371875 -2.0731912500 -5.6966703888
368 1 1.1946609375 -1.6073131250 -4.0963419920
369 1 1.7034584375 -2.2100925000 -5.6081628968
370 1 -2.2009818750 -0.7381353125 -4.8194910080
371 1 -1.6002584375 -0.0985237500 -6.4755405045
372 1 -2.2094743750 -0.1714087500 -4.0441324800
373 1 -1.6820659375 -0.6779756250 -5.7120444128
374 1 -1.1496453125 -0.7142568750 -4.8452654880
375 1 -0.4543353125 -0.2191790625 -3.2139222320
376 1 -0.5833621875 -0.8056721875 -5.6736572752
377 1 -0.0294550000 -0.8729940625 -4.8932137920
378 1 0.5913306250 -0.9433393750 -5.5967495944
379 1 0.0561821875 -0.3032978125 -4.1013026080
380 1 1.1933575000 -1.0337065625 -4.8886546880
381 1 1.0944037500 -0.4708096875 -4.0800742800
382 1 1.7856556250 -1.1020362500 -5.6270274848
383 1 -2.2321837500 0.4208625000 -4.8023684640
384 1 -2.1869531250 1.0003950000 -4.0420990160
385 1 -1.6886637500 0.4382371875 -5.6409962168
386 1 -1.0233193750 -0.1560228125 -4.0181507680
387 1 -1.1129071875 0.3660240625 -4.8690971680
388 1 -0.5270187500 0.3447256250 -5.6232830616
389 1 0.0681550000 0.2672315625 -4.8841473920
390 1 0.5362771875 0.7314971875 -6.4523148071
391 1 -0.0150231250 0.8327218750 -4.0578356960
392 1 0.6583971875 0.1714221875 -5.6453390224
393 1 1.2367203125 0.0963468750 -4.8591241280
394 1 1.7745025000 0.0223734375 -5.7033419640
395 1 1.1002490625 0.6194150000 -3.9811469040
396 1 -2.2182893750 1.5485778125 -4.8709493040
397 1 -1.6235725000 1.5101062500 -5.6316630056
398 1 -1.0846750000 0.9601900000 -4.0994375200
399 1 -0.5810240625 2.0085165625 -6.4683523232
400 1 -1.0601515625 1.5501903125 -4.8439832400
401 1 -0.5018637500 1.4405134375 -5.6562096360
402 1 0.0795365625 1.3833368750 -4.8604711360
403 1 -0.0081834375 1.9166443750 -3.9753314560
404 1 0.6184475000 1.3178962500 -5.7090758144
405 1 1.1413946875 1.1715618750 -4.8140900240
406 1 1.6820121875 1.1569687500 -5.6899003784
407 1 -1.6475315625 -1.2602493750 -3.2602515360
408 1 -0.5851762500 -0.7957687500 -2.4565022240
409 1 0.6634496875 -1.4977840625 -3.2148288720
410 1 0.5360353125 -2.0854462500 -2.4652059680
411 1 1.7986900000 -1.0895662500 -2.3781685280
412 1 -1.6386896875 -0.6723856250 -2.4738190480
413 1 -0.5445546875 0.3285737500 -2.3817303280
414 1 -0.5637703125 0.8826959375 -3.1958671440
415 1 0.5730690625 -0.3927646875 -3.1643031200
416 1 1.6284100000 -0.5544581250 -3.2289336000
417 1 -1.6594775000 1.5360271875 -2.3712521600
418 1 -1.6267840625 -0.1117462500 -3.2803400880
419 1 -0.5975521875 2.0006959375 -3.2342698240
420 1 -1.6728343750 0.4243831250 -2.4396387200
421 1 -0.4677325000 1.4615565625 -2.4134497760
422 1 0.5263468750 0.7219968750 -3.2289595040
423 1 1.7197984375 0.5871381250 -3.2785397600
424 1 1.7775796875 0.0190409375 -2.4664623120
425 1 -1.6983656250 2.0857015625 -3.2159556960
426 1 0.6133143750 1.8856306250 -3.2625440400
427 1 1.1789659375 1.7402100000 -4.0223990240
428 1 1.6596790625 1.1446868750 -2.4524093920
429 1 2.2295634375 -1.7670043750 -4.0993468560
430 1 1.7818662500 1.6969278125 -3.2614690240
431 1 1.6039403125 2.2208156250 -5.6337146024
432 1 2.2029975000 2.2112884375 -4.8848727040
433 1 -1.6467925000 -1.7829143750 -2.4127503680
434 1 -0.5041078125 -1.9082862500 -2.4425140640
435 1 0.5691856250 -0.9567634375 -2.3632478240
436 1 0.6783250000 0.1953946875 -2.3855382160
437 1 0.6155584375 1.3136365625 -2.4804763760
438 1 2.2025943750 -0.6529953125 -3.9966374960
439 1 2.2009953125 1.0545078125 -4.7931077840
440 1 -1.1494034375 2.1097546875 -4.0456478640
441 1 1.6363918750 2.2200631250 -2.3664081120
442 1 -1.6278725000 -1.2666993750 -6.4700999107
443 1 1.6994540625 -1.6657796875 -6.4420757330
444 1 -0.4901462500 -0.2147043750 -6.4195016922
445 1 0.6527668750 -1.4824653125 -6.4356019349
446 1 1.6442259375 -0.5542162500 -6.4570389196
447 1 -0.5713893750 0.8926262500 -6.4629371309
448 1 -1.7123943750 2.0760803125 -6.4370234169
449 1 0.5584893750 -0.3913537500 -6.4380313415
450 1 6.7171912500 -0.2261262500 -4.8080025840
451 1 2.2924509375 -0.0900312500 -4.8065649120
452 1 6.6971693750 1.4367778125 -3.9955754320
453 1 2.7798559375 -1.8343262500 -6.4655824215
454 1 3.3211721875 -1.9265478125 -4.0027896960
455 1 4.5320656250 -2.0532634375 -3.9943968000
456 1 5.6642421875 -2.1086393750 -4.1268957600
457 1 2.3703346875 -1.1844215625 -4.8494619360
458 1 2.8159625000 -0.7033859375 -3.2865959040
459 1 2.8939537500 -1.2707575000 -5.6998552856
460 1 3.4348534375 -1.3792115625 -4.8172762160
461 1 3.4207306250 -0.8047853125 -3.9959769440
462 1 3.9548443750 -1.4418168750 -5.7364654088
463 1 4.4652678125 -1.4856365625 -4.8157737840
464 1 4.5816365625 -0.9080256250 -4.0417881680
465 1 5.0023781250 -1.5830584375 -5.6621079768
466 1 5.5768178125 -1.5028096875 -4.8668953280
467 1 5.6806896875 -0.9638853125 -4.0506084800
468 1 6.1660387500 -1.5332456250 -5.5836887976
469 1 2.3054450000 0.4775418750 -4.0092009360
470 1 2.8348421875 -0.1442112500 -5.6998565808
471 1 3.3469050000 -0.2543181250 -4.8049977200
472 1 3.9978040625 0.2216918750 -6.4476672410
473 1 3.4688368750 0.3414871875 -4.0790381200
474 1 3.8917150000 -0.3501812500 -5.6495328800
475 1 4.4786784375 -0.3727831250 -4.8811036720
476 1 5.0351925000 0.1491428125 -6.4077930842
477 1 4.5427887500 0.1986465625 -4.0744660640
478 1 6.2049403125 -0.4105559375 -5.6771102784
479 1 5.6325028125 -0.3811143750 -4.8754177440
480 1 5.5938296875 0.1381912500 -4.0087346640
481 1 6.1379409375 0.1649184375 -6.4447999272
482 1 2.7344103125 0.9307484375 -5.6378437000
483 1 3.3287240625 0.9130646875 -4.8660793520
484 1 3.9210221875 1.3408340625 -6.4007861818
485 1 3.3994321875 1.4822503125 -4.0726527840
486 1 3.9006106250 0.7721053125 -5.6163563320
487 1 4.5144221875 0.7486031250 -4.9179262080
488 1 5.1143393750 0.7311343750 -5.6395145080
489 1 4.4784365625 1.2725715625 -4.0445339920
490 1 5.0548650000 -0.4495112500 -5.6592080240
491 1 5.6803134375 0.6883628125 -4.8635666640
492 1 6.1385993750 1.3230428125 -3.2069022480
493 1 6.2322587500 0.7639890625 -5.6952521448
494 1 2.7498768750 -1.8367046875 -3.2180021120
495 1 3.9208071875 -2.0045256250 -3.2875154960
496 1 5.1164625000 -2.1281640625 -3.2639558080
497 1 6.1628540625 -1.9874331250 -3.2146345920
498 1 2.8071071875 -0.1498818750 -2.4615535040
499 1 2.9158300000 -1.2666053125 -2.4609577120
500 1 4.0156221875 -0.8589250000 -3.2630362160
501 1 3.9597221875 -1.4481862500 -2.4808260800
502 1 5.1296850000 -1.0290168750 -3.2235067120
503 1 5.0315643750 -1.5934456250 -2.4191098000
504 1 6.2303371875 -0.8966037500 -3.2193491200
505 1 6.1937468750 -1.4451762500 -2.3672888480
506 1 2.8593521875 1.4918850000 -3.2032368320
507 1 2.9043140625 0.4129478125 -3.2729185920
508 1 3.9904671875 0.2417137500 -3.2029907440
509 1 3.8939053125 -0.3314762500 -2.4089942880
510 1 5.0535750000 0.1201043750 -3.1700149520
511 1 5.0769025000 -0.4727312500 -2.4228270240
512 1 6.1829431250 0.1996275000 -3.2487242560
513 1 6.1940290625 -0.3473862500 -2.3922344000
514 1 2.3307881250 1.6519121875 -4.0768233280
515 1 3.9306434375 1.3512078125 -3.1978747040
516 1 3.9202965625 0.7948550000 -2.3818598480
517 1 5.5878768750 1.2315737500 -4.0479403680
518 1 5.0903937500 1.8704328125 -2.4452857920
519 1 6.2476581250 0.7484553125 -2.4301319520
520 1 2.7867090625 2.0541637500 -5.6206913664
521 1 3.4070512500 2.0245743750 -4.9219283760
522 1 3.9937728125 1.9428475000 -5.6674934184
523 1 4.5312996875 1.8511634375 -4.8236226960
524 1 5.0792406250 1.8398625000 -5.6818882712
525 1 5.6150609375 1.8183625000 -4.8206307840
526 1 6.1548990625 1.8987590625 -5.6420725280
527 1 4.0123031250 1.9252712500 -2.4269587120
528 1 5.0376784375 1.2739287500 -3.2187662800
529 1 6.1940693750 1.8902800000 -2.4229824480
530 1 2.7536259375 0.9421434375 -2.3917163200
531 1 5.1048121875 0.7125503125 -2.4273602240
532 1 2.8288356250 2.0514896875 -2.3936850240
533 1 5.1345628125 -1.0078662500 -6.4395675782
534 1 6.2085684375 -2.0288878125 -6.4587150379
535 1 6.2341668750 -0.9829800000 -6.4634552109
536 1 6.1573984375 1.3458865625 -6.4649401318
537 1 2.8749934375 1.4901784375 -6.4340359086
538 1 -6.1634627813 6.5613834375 -5.6273823696
539 1 -6.2185310000 6.4997859375 -2.3941642480
540 1 -5.0138134375 6.6990103125 -2.4377477280
541 1 -3.8949400000 2.9700503125 -3.3076429040
542 1 -6.1799505938 2.6621837500 -6.4123666945
543 1 -6.6821525656 2.5089021875 -4.0484973040
544 1 -5.1106843750 2.8231381250 -6.4378558419
545 1 -5.6559001875 2.7470281250 -4.0461659440
546 1 -4.4974103125 2.3651343750 -4.7911131760
547 1 -4.5210200000 2.9370746875 -4.0125425520
548 1 -3.9498321875 2.4404515625 -5.6615173656
549 1 -3.3943662500 2.4714787500 -4.8463923120
550 1 -2.8256106250 2.6240615625 -5.6084465456
551 1 -6.2125956563 3.2361934375 -5.6006844120
552 1 -5.6065751563 3.2883309375 -4.8948846000
553 1 -5.5786076875 3.8450734375 -4.0749193840
554 1 -5.0169846875 3.3940840625 -5.6160545504
555 1 -4.4335956250 3.4814278125 -4.8612612080
556 1 -4.0080031250 4.1051965625 -6.4424131326
557 1 -4.5563203125 4.0524006250 -4.0634957200
558 1 -3.8735878125 3.5233931250 -5.6820203816
559 1 -3.3624387500 3.6680478125 -4.7851811600
560 1 -3.4476862500 4.2282437500 -4.0105868000
561 1 -2.8206521875 3.7060221875 -5.6739124296
562 1 -6.2179491563 4.3352196875 -5.6865263824
563 1 -5.6934015625 4.4531740625 -4.8093625440
564 1 -5.6019257813 5.0195646875 -4.0154956080
565 1 -5.1372503125 4.5318506250 -5.5981445248
566 1 -4.5251184375 4.6067512500 -4.8988090560
567 1 -4.0303496875 5.7855693750 -5.6684052392
568 1 -4.4557809375 5.1384462500 -4.0578745520
569 1 -3.9158487500 4.6517534375 -5.6120238880
570 1 -3.3278371875 4.7621021875 -4.8679832960
571 1 -3.4353640625 5.3329675000 -4.0588589040
572 1 -2.7826912500 4.8384003125 -5.7084605944
573 1 -6.6052828094 5.9564003125 -4.0703473280
574 1 -6.1517708125 5.4417440625 -5.6145870888
575 1 -5.6383091563 5.6344915625 -4.6553762160
576 1 -5.5992450000 6.5612893750 -4.7913333600
577 1 -5.1367800000 5.6174931250 -5.6928612056
578 1 -4.5807900000 5.7168096875 -4.8501095360
579 1 -5.0880959375 6.1923628125 -6.4323086298
580 1 -4.5678362500 6.2447018750 -3.9761474320
581 1 -3.9231990625 6.3694018750 -6.4465115340
582 1 -3.4571328125 5.8863237500 -4.8810000560
583 1 -3.3761584375 6.4325850000 -4.0521886240
584 1 -2.8650765625 5.9531887500 -5.5980849456
585 1 -6.1594275000 2.6587168750 -3.1374147680
586 1 -5.0766471875 2.7818043750 -3.2499158400
587 1 -3.9843934375 2.4531231250 -2.3944491920
588 1 -3.3280925000 3.0421156250 -4.0886355520
589 1 -2.8108293750 3.1640609375 -3.2096869280
590 1 -6.1405545313 3.7674584375 -3.2468203120
591 1 -6.2128375313 3.2502893750 -2.3903175040
592 1 -5.0706406250 3.9573303125 -3.1591482240
593 1 -5.0062078125 3.3559350000 -2.4573570560
594 1 -3.9881559375 4.0471331250 -3.2224964560
595 1 -3.9106081250 3.4916134375 -2.4074530000
596 1 -2.8355678125 4.2425143750 -3.3030967520
597 1 -2.8452831250 3.7306934375 -2.3904211200
598 1 -6.2048825313 4.8184053125 -3.2717529120
599 1 -6.2061846250 4.3349240625 -2.3978296640
600 1 -5.0229778125 5.0479850000 -3.2253199920
601 1 -5.1197143750 4.5563471875 -2.3846445280
602 1 -3.9567121875 5.1970337500 -3.1569981920
603 1 -3.8962837500 4.6060928125 -2.4095771280
604 1 -2.8749128125 5.3709150000 -3.2052832480
605 1 -2.7900953125 4.7763056250 -2.4447418080
606 1 -6.0991603125 5.9547071875 -3.2884350880
607 1 -6.1889187813 5.4006118750 -2.4283445760
608 1 -5.1833678125 6.1494031250 -3.3653440640
609 1 -5.1043553125 5.6524440625 -2.4216613440
610 1 -3.9384640625 6.3310646875 -3.2699914400
611 1 -4.0392453125 5.8020437500 -2.4389522640
612 1 -2.8275053125 6.4934031250 -3.1849097520
613 1 -2.8308512500 5.9277381250 -2.4049791680
614 1 -2.2459034375 3.1948731250 -4.0594935520
615 1 -2.2655356250 3.7707909375 -4.8531403040
616 1 -2.2767962500 4.8608275000 -4.7998946320
617 1 -2.3284903125 5.4361271875 -4.0120115200
618 1 -2.2595962500 5.9599478125 -4.8506794240
619 1 -2.3033890625 6.5439953125 -4.0808254960
620 1 -2.8183812500 2.6172353125 -2.3780519600
621 1 -5.0176028125 5.0249128125 -6.4650071972
622 1 -3.9317453125 5.2145965625 -6.4293696915
623 1 -6.7147198922 3.6268215625 -4.0315042800
624 1 -6.1310703438 3.7622715625 -6.4601683818
625 1 -5.0526478125 3.9407215625 -6.4119084527
626 1 -2.8690271875 5.4422278125 -6.4638088005
627 1 -6.2135456875 5.9933400000 -6.4706981377
628 1 -2.7814281250 6.5020031250 -6.4650966049
629 1 -2.1984690625 2.6523071875 -4.8978376560
630 1 2.1604812500 6.6122578125 -4.8853907840
631 1 1.0678109375 2.3162756250 -4.7949469680
632 1 -1.6369025000 2.6534359375 -5.6771737432
633 1 -1.0676631250 2.6612565625 -4.8599919120
634 1 -1.1595218750 3.1926021875 -3.9777016720