ITEM: TIMESTEP
96000
ITEM: NUMBER OF ATOMS
2304
ITEM: BOX BOUNDS pp pp pp
-6.7187500000 6.7187500000
-6.7187500000 6.7187500000
-6.4760000000 6.4760000000
ITEM: ATOMS id type x y z
1 1 -6.1338895313 -6.4487556875 -5.6671514856
2 1 -5.5938229688 -6.4097425938 -4.8057230320
3 1 -5.6290628125 -5.8153213438 -4.0393402400
4 1 -5.0749809375 -6.3137007500 -5.7159533264
5 1 -4.5428828125 -6.3157795313 -4.8330776560
6 1 -3.9049509375 -5.1846981250 -5.6631648600
7 1 -4.4710190625 -5.7246558438 -4.0533413520
8 1 -3.9745571875 -6.3112376563 -5.6296450840
9 1 -3.3815871875 -6.3212741250 -4.8867377920
10 1 -3.3777978125 -5.7803959375 -4.0669798080
11 1 -2.7907806250 -6.4416848750 -5.5954168336
12 1 -6.1149695313 -4.8111087500 -6.4444063159
13 1 -6.6884380906 -4.9080200000 -4.0106256560
14 1 -6.1958431250 -5.3366225000 -5.6412695040
15 1 -5.6098068750 -5.2851568750 -4.8713119600
16 1 -5.0711781250 -4.6478700000 -6.4389168698
17 1 -5.5931376563 -4.7186318750 -4.0670834240
18 1 -5.0254368750 -5.2274831250 -5.6268047104
19 1 -4.4501640625 -5.1743646875 -4.8457317600
20 1 -3.9758606250 -4.6169503125 -6.4541139694
21 1 -4.5436487500 -4.5908143750 -4.0674072240
22 1 -3.4015956250 -4.6677440625 -3.9879078480
23 1 -2.7728415625 -5.3057565625 -5.6726483144
24 1 -6.2228726563 -4.2147390625 -5.6499590008
25 1 -5.0509009375 -4.0876337500 -5.6306631112
26 1 -5.0817400000 -3.5429715625 -6.4351342382
27 1 -5.6176127188 -3.6160984375 -4.0565534480
28 1 -4.4517631250 -4.0426181250 -4.8864787520
29 1 -3.8831418750 -4.0498743750 -5.6809673840
30 1 -4.4795653125 -3.5120384375 -4.0178399200
31 1 -3.3610815625 -4.1179487500 -4.7963198800
32 1 -3.3299065625 -5.1941984375 -4.8554198560
33 1 -3.8955446875 -3.4927825000 -3.2620777680
34 1 -2.8243340625 -4.2097806250 -5.6979487512
35 1 -6.1174998125 -3.1329934375 -5.6387956720
36 1 -5.6041375938 -3.0244721875 -4.8108520240
37 1 -5.6271237813 -4.1621715625 -4.8789924960
38 1 -5.6024511875 -2.4413250000 -4.0328124320
39 1 -5.0572971875 -2.9281387500 -5.7012800056
40 1 -4.5345246875 -2.9451775000 -4.8203458400
41 1 -4.4352081250 -2.3476387500 -4.0751913760
42 1 -3.9906553125 -2.9543015625 -5.6620173128
43 1 -3.4099000000 -2.9526353125 -4.8721279360
44 1 -2.8156803125 -2.5542806250 -6.4125785892
45 1 -3.3500225000 -2.4024637500 -4.0644541680
46 1 -2.8491396875 -3.1310046875 -5.6294300808
47 1 -6.1635057813 -5.9392970625 -3.1982373600
48 1 -6.1459228125 -6.5136480625 -2.4137994800
49 1 -5.0453109375 -5.7543446563 -3.2538791520
50 1 -5.0701300000 -6.3099167500 -2.4147579280
51 1 -3.9414068750 -5.7411140938 -3.2053091520
52 1 -3.9432746875 -6.2848155000 -2.3744513040
53 1 -2.8534128125 -5.8671027500 -3.2121348560
54 1 -2.7485331250 -6.4350575000 -2.4205863280
55 1 -6.1450413125 -4.7710515625 -3.2079254560
56 1 -6.1922942813 -5.3536612500 -2.4453894080
57 1 -5.0642309375 -4.6536884375 -3.1829799040
58 1 -5.0358912500 -5.2204150000 -2.3954983040
59 1 -3.9800396875 -4.6319600000 -3.2485170240
60 1 -3.8828328125 -5.1623784375 -2.4108593760
61 1 -2.8593118750 -4.2161500000 -2.4102765360
62 1 -6.1687705938 -3.7040065625 -3.2348267600
63 1 -6.1749048125 -4.2297890625 -2.3675737920
64 1 -5.0649296875 -3.5053868750 -3.2458877680
65 1 -5.0168637500 -4.0465150000 -2.4364784320
66 1 -3.9223256250 -4.0513390625 -2.4504795440
67 1 -3.3325134375 -3.5101437500 -4.0641951280
68 1 -6.1539288750 -2.5865709375 -3.2325213040
69 1 -6.1768089063 -3.1386506250 -2.4245884960
70 1 -4.9999996875 -2.4295403125 -3.2673880880
71 1 -5.0651178125 -2.9649440625 -2.3929985680
72 1 -3.9133762500 -2.3923721875 -3.2072519520
73 1 -3.9564434375 -2.9634793750 -2.4158588480
74 1 -2.8229365625 -2.4984478125 -3.1901294080
75 1 -2.7843843750 -3.6565721875 -3.2171602320
76 1 -2.2995862500 -5.9792292813 -4.0171793680
77 1 -2.7801918750 -4.7326203125 -3.2930848560
78 1 -2.2781937500 -4.2599562500 -4.8343599040
79 1 -2.2774681250 -2.6376200000 -4.0180471520
80 1 -2.7932262500 -5.2869843750 -2.4605950560
81 1 -2.7879990625 -3.0750912500 -2.4392501600
82 1 -3.8653506250 -5.7536311250 -6.4426246388
83 1 -6.2665996250 -2.5592928125 -6.4379380871
84 1 -6.7121723572 -6.5149098438 -4.8890950560
85 1 -6.7159722000 -5.9921494375 -4.0362965200
86 1 -2.8080343750 -5.8857445938 -6.4451185464
87 1 -3.8781296875 -2.4012006250 -6.4716394502
88 1 -2.2311087500 -5.4074529063 -4.8163954800
89 1 -2.2247662500 -3.1474118750 -4.9196358720
90 1 -1.6538471875 -4.9545943750 -3.2243744960
91 1 -1.6905315625 -5.4801524688 -5.7070332840
92 1 -2.2048653125 -4.8400800000 -4.0468912560
93 1 -2.1651575000 -6.4974182500 -4.8941074800
94 1 -1.6093959375 -6.6148704656 -5.6711368160
95 1 -1.1024931250 -6.1201644688 -4.0317633200
96 1 0.5910081250 -6.4007609688 -6.4492761384
97 1 0.0376250000 -6.2607637188 -4.0529527920
98 1 1.1098568750 -6.4748714688 -4.0271394560
99 1 -1.1548053125 -5.5531758750 -4.8308240080
100 1 -0.6332556250 -5.6847290000 -5.6855588680
101 1 -0.5463687500 -4.5177681250 -5.6857181776
102 1 -1.0868384375 -4.9813753125 -4.0536651520
103 1 -0.5430631250 -5.1022456250 -6.4439900386
104 1 -0.0417234375 -5.7152616875 -4.9050648720
105 1 0.5419075000 -5.2356934375 -6.4209717442
106 1 -0.0125909375 -5.1969396875 -4.0245231520
107 1 0.5223693750 -5.8336715938 -5.6719281832
108 1 1.0990262500 -5.9219653750 -4.8758192560
109 1 1.0937453125 -5.3630137500 -4.0652442400
110 1 1.6733315625 -5.9594143438 -5.6587948552
111 1 -1.6728209375 -3.8315956250 -6.4258042650
112 1 -2.2220787500 -3.6931490625 -4.0624466080
113 1 -1.7353725000 -4.4055650000 -5.6502711440
114 1 -1.1254981250 -4.4409056250 -4.9208145040
115 1 -1.1463800000 -3.9290981250 -4.0254427440
116 1 -0.0016393750 -4.6558787500 -4.8848597520
117 1 1.0976287500 -4.2273568750 -4.0759037360
118 1 -0.0131553125 -4.0984643750 -4.0838174080
119 1 0.6011534375 -4.6617778125 -5.6700889992
120 1 1.1311284375 -4.7999690625 -4.8592536480
121 1 1.1664959375 -3.6487918750 -4.8722315520
122 1 1.7207390625 -4.8977940625 -5.6606780760
123 1 -1.7084168750 -2.6574537500 -6.4475792969
124 1 -1.6543175000 -3.2374162500 -5.6923858672
125 1 -1.1086071875 -3.3808212500 -4.8628154480
126 1 -1.1290053125 -2.8065293750 -4.0803851280
127 1 -0.5267096875 -3.3708371875 -5.6698390256
128 1 0.0141228125 -3.5086656250 -4.8219130320
129 1 0.5574546875 -3.6053081250 -5.6544507544
130 1 1.1202709375 -3.1249040625 -4.0167908080
131 1 1.7328059375 -3.1534990625 -6.4205853861
132 1 1.7281431250 -3.1590353125 -3.2892640160
133 1 1.6629443750 -3.7789071875 -5.7434193376
134 1 -1.6816896875 -6.0421584375 -3.2949758480
135 1 -1.6459996875 -6.5947384031 -2.4646749360
136 1 -0.5318025000 -6.2289880625 -3.2407458240
137 1 0.5517840625 -6.3880343125 -3.1841714880
138 1 1.6743259375 -6.5104270938 -3.2470664000
139 1 -1.7327656250 -5.5152498750 -2.4214411600
140 1 -0.5620637500 -5.0867790625 -3.1858034400
141 1 -0.5973103125 -5.6630475938 -2.4264147280
142 1 0.5634478125 -5.2258034375 -3.2267188080
143 1 0.5672237500 -5.7914146875 -2.4435761280
144 1 1.6621381250 -5.4246623125 -3.2493977600
145 1 1.6983790625 -5.9689576563 -2.3901620800
146 1 -1.6856537500 -3.8033634375 -3.1946626080
147 1 -1.6953690625 -4.3805981250 -2.4369706080
148 1 -0.5445143750 -3.9292728125 -3.2553945360
149 1 -0.5509509375 -4.4842415625 -2.4431228080
150 1 0.5499700000 -4.1290481250 -3.2542806640
151 1 0.5476856250 -4.6715065625 -2.4056656240
152 1 1.6566959375 -4.3255581250 -3.2251775200
153 1 1.6987687500 -4.8760118750 -2.4189802800
154 1 -1.6610496875 -3.2086062500 -2.4494304320
155 1 -0.0058721875 -2.9180606250 -4.0884930800
156 1 -0.5553315625 -3.3962340625 -2.3945528080
157 1 0.5352156250 -3.0296187500 -3.2541900000
158 1 0.5954962500 -3.5797500000 -2.4256894160
159 1 2.2113690625 -5.4450080313 -4.0885189840
160 1 2.1966953125 -4.3025128125 -4.0529009840
161 1 -0.5764150000 -2.3311106250 -5.6402631336
162 1 0.0296700000 -2.3404631250 -4.8696800080
163 1 0.5681778125 -2.4991062500 -5.6998410384
164 1 1.1249606250 -2.5849046875 -4.8613259680
165 1 1.7042378125 -2.5703384375 -5.6799066152
166 1 -1.6702275000 -2.6490687500 -3.2650696800
167 1 -0.5696828125 -2.8599300000 -3.2568063040
168 1 0.5636359375 -2.4589953125 -2.4750235840
169 1 1.6592221875 -3.7178471875 -2.4784688160
170 1 -0.5283625000 -2.3014406250 -2.4467234640
171 1 1.6309228125 -2.6384800000 -2.4043963280
172 1 1.6659678125 -6.5567112188 -6.4205943230
173 1 2.2143925000 -6.0510890000 -4.8084947600
174 1 2.2386471875 -3.7652412500 -4.9199726240
175 1 -1.0726618750 -6.7042211063 -4.8139734560
176 1 -0.5739290625 -3.9422668750 -6.4526878247
177 1 6.6656450000 -5.4232486875 -4.8796919040
178 1 6.7150681250 -3.7429215625 -4.0991525760
179 1 2.2510365625 -6.6247628844 -4.0262846240
180 1 2.2725231250 -4.8753265625 -4.8495914560
181 1 6.6719068750 -4.3519896875 -4.8155406480
182 1 6.6942131250 -3.1787078125 -4.8863362800
183 1 6.7068175000 -2.6612431250 -4.0097967280
184 1 3.3683646875 -6.5002065313 -4.0736241840
185 1 4.4477721875 -6.3601891250 -4.0722512720
186 1 5.0155200000 -6.2286695938 -6.4601806862
187 1 5.6047543750 -6.1795004375 -4.0158194080
188 1 3.3219784375 -5.9453761875 -4.8755472640
189 1 3.9071950000 -4.6658628125 -5.6708078352
190 1 3.3796790625 -5.4115500000 -4.0114545840
191 1 3.9223390625 -5.8474544375 -5.6124500088
192 1 4.5086171875 -5.8004420000 -4.8788759280
193 1 4.4793100000 -5.2450862500 -4.0638713280
194 1 5.0716753125 -5.6191902813 -5.6782409880
195 1 5.6264290625 -5.6284702188 -4.8378051360
196 1 6.1602740625 -6.0417593438 -6.4193321506
197 1 5.5615393750 -5.0501753125 -4.0425523360
198 1 6.1552484375 -6.6528883781 -5.6500677976
199 1 2.8002271875 -4.9034243750 -5.7096457024
200 1 3.3585956250 -4.8693871875 -4.8569093360
201 1 3.3081646875 -4.2805828125 -4.0796727680
202 1 3.9328471875 -3.5824509375 -5.7250028888
203 1 4.4637493750 -4.6733743750 -4.8416130240
204 1 4.4777646875 -4.1188087500 -4.0374751520
205 1 4.9850571875 -4.5368493750 -5.6419585504
206 1 5.6116075000 -4.5198643750 -4.8738246480
207 1 5.6214706250 -3.9546428125 -4.0271135520
208 1 6.1260218750 -5.4382812188 -5.7458983504
209 1 2.2938350000 -3.2402784375 -4.0443008560
210 1 2.8030759375 -3.8282900000 -5.6668069624
211 1 3.3916115625 -3.7271728125 -4.8509125600
212 1 3.9093584375 -2.9463600000 -6.3530473116
213 1 3.3305650000 -3.1204159375 -4.1114569760
214 1 4.4703337500 -3.5377309375 -4.7903490080
215 1 4.4360950000 -2.9284612500 -4.0647002560
216 1 4.9440459375 -3.4600353125 -5.6952858200
217 1 5.5394346875 -3.4235256250 -4.8538656160
218 1 6.1069675000 -3.3402265625 -5.6769963008
219 1 5.5579650000 -2.8420984375 -4.0902804560
220 1 6.1420125000 -4.2933887500 -5.7630662264
221 1 2.8220093750 -6.5651660938 -3.2388677840
222 1 3.9220568750 -6.4664354063 -3.1996879840
223 1 5.0056971875 -6.2504813438 -3.2630750720
224 1 6.1566728125 -6.0736693750 -3.2124586560
225 1 2.7560178125 -5.4596455000 -3.2827491600
226 1 2.7910628125 -5.9871412813 -2.4276322160
227 1 3.9317184375 -5.2961218750 -3.2273016480
228 1 3.8843243750 -5.8736736875 -2.4643511360
229 1 5.0307715625 -5.1560762500 -3.2003485360
230 1 5.0420187500 -5.7255722813 -2.3928301920
231 1 6.1473471875 -4.9600365625 -3.2675564640
232 1 6.1450762500 -5.4925190000 -2.4102894880
233 1 2.7778134375 -4.3683028125 -3.2476751440
234 1 2.8355409375 -4.9243465625 -2.4210526000
235 1 3.8778743750 -4.1870309375 -3.2885257520
236 1 3.9025456250 -4.7180137500 -2.4331627200
237 1 5.0374365625 -3.9977234375 -3.2526487120
238 1 5.0010343750 -4.5704431250 -2.4644806560
239 1 6.1895140625 -3.8590887500 -3.2234808080
240 1 6.1173009375 -4.4252778125 -2.4112479360
241 1 2.8450412500 -3.2435975000 -3.1902071200
242 1 2.7603984375 -3.8195556250 -2.4283963840
243 1 3.9071815625 -3.1499515625 -3.2167587200
244 1 3.9574646875 -3.6724821875 -2.3602559120
245 1 4.9975809375 -2.9174559375 -3.2638133360
246 1 5.0703315625 -3.4495271875 -2.4213375440
247 1 6.1011893750 -2.7027650000 -3.2828786800
248 1 6.1475621875 -3.2715206250 -2.4873150320
249 1 2.2536031250 -2.6867206250 -4.8692007840
250 1 2.8565706250 -2.6898246875 -5.6063755208
251 1 3.5334712500 -2.5818543750 -5.0798780160
252 1 4.4365384375 -2.4197040625 -5.0185243920
253 1 5.0143106250 -2.3790959375 -5.6840318272
254 1 5.6122256250 -2.2974362500 -4.8962834160
255 1 2.7746287500 -2.6474696875 -2.4499226080
256 1 3.9108903125 -2.5338825000 -2.4869523760
257 1 5.0552009375 -2.3790959375 -2.3909910080
258 1 3.9153112500 -5.3127575000 -6.4282244757
259 1 2.7494200000 -6.0300297500 -5.6593245920
260 1 6.1412734375 -2.9960384375 -6.4744295830
261 1 5.5570109375 -6.6888733313 -4.9080308800
262 1 6.1431681250 -6.6439668188 -2.4648433120
263 1 2.7931321875 -5.5065114688 -6.4596606634
264 1 -6.1999469375 -2.0040015625 -5.6985354768
265 1 -5.6551194688 -1.9107318750 -4.8546556880
266 1 -5.5956827188 -1.3446503125 -4.0239532640
267 1 -5.1020843750 -1.8517950000 -5.6705785848
268 1 -4.5314206250 -1.7890553125 -4.8493842240
269 1 -3.9535946875 -1.2810103125 -6.4215314002
270 1 -4.4832740625 -1.2269109375 -4.0503882960
271 1 -3.9867450000 -1.8512440625 -5.6480654184
272 1 -3.3529115625 -1.8541331250 -4.9259694000
273 1 -3.3821918750 -1.3505628125 -4.0277611520
274 1 -2.7791975000 -1.9466771875 -5.6987893360
275 1 -6.6849988969 -0.9711953125 -4.8426362320
276 1 -6.1476105625 -0.9158059375 -5.7067988528
277 1 -5.6009999375 -0.7907296875 -4.8448769280
278 1 -5.6293597813 -0.2342962500 -4.0530046000
279 1 -5.0523118750 -0.7285946875 -5.6729177160
280 1 -4.4846446875 -0.6795612500 -4.9011145120
281 1 -4.4841878125 -0.1645153125 -4.0086699040
282 1 -3.8999521875 -0.6744550000 -5.6961639656
283 1 -3.3872981250 -0.7956343750 -4.8370409680
284 1 -3.3319356250 -0.2069643750 -4.0702307600
285 1 -2.7936562500 -0.8015334375 -5.6636933016
286 1 -6.1618072813 0.7652118750 -6.4083584390
287 1 -6.6748138094 0.6735009375 -4.0279683840
288 1 -6.1196780313 0.1895225000 -5.6215772832
289 1 -5.5492722813 0.3435565625 -4.8515213040
290 1 -5.6318416875 0.9057815625 -4.0672777040
291 1 -4.9926628125 0.4188871875 -5.6940566752
292 1 -4.4665846875 0.3958418750 -4.8229750960
293 1 -4.4998021875 0.9914321875 -4.0700105760
294 1 -3.9208743750 0.4543621875 -5.6811409408
295 1 -3.3804181250 0.3655268750 -4.8288294000
296 1 -2.7866821875 0.7972065625 -6.4458515001
297 1 -3.3466631250 0.9344034375 -4.0268415600
298 1 -2.8330415625 0.2442265625 -5.6341018672
299 1 -6.1118600938 1.9264268750 -6.4526731890
300 1 -6.2117249063 1.3553868750 -5.6701900248
301 1 -5.6405545625 1.4570146875 -4.8908176720
302 1 -5.0020556250 2.0670771875 -6.4575567406
303 1 -5.5432684063 1.9835631250 -4.0092527440
304 1 -5.0435506250 1.4960237500 -5.6346704600
305 1 -4.4814868750 1.5637084375 -4.8258504400
306 1 -4.4770121875 2.1520693750 -4.0628092640
307 1 -3.9390150000 1.5178193750 -5.6432887208
308 1 -3.3497268750 1.4766603125 -4.8690324080
309 1 -2.7988431250 1.4034259375 -5.6999498352
310 1 -6.2175299063 -1.4252350000 -3.2807286480
311 1 -6.1659151250 -1.9940040625 -2.4909934000
312 1 -5.0377859375 -1.3152356250 -3.2198024400
313 1 -5.0865103125 -1.8863428125 -2.4341082160
314 1 -3.9273378125 -1.2696018750 -3.2109950800
315 1 -3.9286815625 -1.8201765625 -2.4089554320
316 1 -2.7925543750 -1.3560050000 -3.2528300400
317 1 -2.7819253125 -1.9122234375 -2.4384082800
318 1 -6.1937240313 -0.3461903125 -3.2305526000
319 1 -6.1178747188 -0.9003931250 -2.4039818640
320 1 -5.0742015625 -0.1261243750 -3.2571560080
321 1 -5.0356359375 -0.7122143750 -2.4951121360
322 1 -3.8934484375 -0.1433512500 -3.2620130080
323 1 -3.9341775000 -0.6777203125 -2.4407784960
324 1 -2.7902296875 -0.2976675000 -3.2348526640
325 1 -2.8124956250 -0.8369950000 -2.3789586000
326 1 -6.1345546875 0.7823581250 -3.1672820800
327 1 -6.1700216250 0.2043843750 -2.4026996160
328 1 -5.0636665625 0.9527725000 -3.2392174880
329 1 -4.9934153125 0.3885856250 -2.3960422880
330 1 -3.9591981250 0.9720418750 -3.2646552160
331 1 -3.9129731250 0.4244637500 -2.4415038080
332 1 -6.1515625313 1.9650865625 -3.2523119600
333 1 -6.2102884375 1.3857421875 -2.4637942000
334 1 -4.9981990625 2.0486275000 -3.1825136320
335 1 -5.0603609375 1.4835537500 -2.3875587280
336 1 -2.7937234375 1.9929828125 -3.2503303040
337 1 -3.8958940625 1.5233959375 -2.4327223520
338 1 -2.7939518750 0.8451381250 -3.2409401040
339 1 -2.8181259375 1.4195912500 -2.4498319440
340 1 -2.2419125000 -1.5159784375 -4.0780408160
341 1 -2.2609131250 1.2917468750 -4.8642660720
342 1 -3.3747878125 2.0341150000 -4.0470725840
343 1 -3.9150559375 2.0914393750 -3.2263691040
344 1 -2.8079537500 0.2870653125 -2.4552070240
345 1 -2.2546915625 -0.9374268750 -4.8218871280
346 1 -6.7055950234 1.7754162500 -4.0045641200
347 1 -2.8201012500 -1.3652500000 -6.4497586004
348 1 -5.0719306250 -0.1769853125 -6.4642822738
349 1 -3.9380475000 2.0831618750 -6.4537713890
350 1 -2.8265512500 1.9826225000 -6.4502654122
351 1 -2.2389428125 -2.0981581250 -4.8542412240
352 1 -2.2316596875 -0.3415275000 -4.0807866400
353 1 -2.2215546875 0.7473668750 -4.0210390640
354 1 -2.2363896875 1.8735100000 -4.0763311520
355 1 1.7369715625 -2.0782034375 -3.2460172880
356 1 -1.6391868750 0.6676959375 -3.2465612720
357 1 -1.6587921875 -2.0829200000 -5.6721315296
358 1 -1.1190346875 -1.6299150000 -4.0782221440
359 1 -0.5793309375 -1.7533653125 -3.2560809920
360 1 -1.1220043750 -2.2204528125 -4.8198148080
361 1 0.0162728125 -1.8187521875 -4.0100169120
362 1 1.1806590625 -2.0009915625 -4.0791676400
363 1 -1.7046678125 -1.0432875000 -5.6348595592
364 1 -1.0931003125 -1.0624225000 -4.8756249760
365 1 -0.5527246875 -0.6144968750 -6.4276745338
366 1 -0.5247209375 -0.6104925000 -3.2666109680
367 1 -0.5599540625 -1.2070637500 -5.7084049008
368 1 -0.0130612500 -1.2825287500 -4.8759358240
369 1 0.5743456250 -1.3087050000 -5.6788186472
370 1 0.0355959375 -0.7161246875 -4.0727045920
371 1 0.5830531250 -1.9075068750 -6.4201369878
372 1 1.1178253125 -1.4546362500 -4.8832796080
373 1 1.1075321875 -0.8642059375 -4.1049939280
374 1 1.7344856250 -1.4978915625 -5.6091602008
375 1 -2.2277359375 0.2231700000 -4.8846525200
376 1 -1.6931384375 0.6799509375 -6.4290676509
377 1 -1.6727940625 0.0824928125 -5.6987737936
378 1 -1.1200962500 -0.5376343750 -4.0143169760
379 1 -1.1308193750 0.0004031250 -4.8740059760
380 1 -0.5440978125 -0.0208281250 -5.6769328360
381 1 -0.0108440625 -0.1548940625 -4.8510679840
382 1 -0.0336071875 0.4391240625 -4.0876382480
383 1 0.5666459375 -0.2331271875 -5.6194674024
384 1 1.1673290625 -0.2699056250 -4.8734101840
385 1 1.7047753125 -0.4141975000 -5.6941551104
386 1 1.0795150000 0.2349815625 -3.9964950240
387 1 -1.6729553125 1.2574543750 -5.6589541648
388 1 -1.1003296875 0.5775437500 -4.0836231280
389 1 -1.1148018750 1.1428728125 -4.8656389840
390 1 -0.5344900000 1.0513231250 -5.6226950408
391 1 0.0638012500 1.0065090625 -4.8675558800
392 1 -0.0393853125 1.5243365625 -3.9897340800
393 1 0.5890865625 0.8610884375 -5.7090201208
394 1 1.1195721875 0.8042746875 -4.8090646480
395 1 1.6502862500 0.7730862500 -5.7125650832
396 1 1.0590093750 1.9082325000 -4.8599660080
397 1 -1.6976131250 -1.5804246875 -3.2516902640
398 1 -0.5825156250 -1.1713468750 -2.4677445600
399 1 0.6216993750 -1.9045909375 -3.2799515280
400 1 1.6903703125 -1.5400181250 -2.4117530640
401 1 -1.6528528125 -1.0196106250 -2.4438222160
402 1 -0.6045934375 -0.0946268750 -2.3779872000
403 1 -0.5754878125 0.4673159375 -3.1986129680
404 1 0.5647243750 -0.8030653125 -3.2031202640
405 1 1.6140318750 -0.9681987500 -3.1907511040
406 1 -1.6994540625 1.1980875000 -2.3747232960
407 1 -1.6981640625 -0.4613900000 -3.2401629840
408 1 -0.6225056250 1.6122850000 -3.2377927680
409 1 -1.7159015625 0.1123912500 -2.4406748800
410 1 -0.5098993750 1.0490521875 -2.4406101200
411 1 0.4977787500 0.3084712500 -3.2323917840
412 1 1.6930981250 0.1971684375 -3.3014388960
413 1 1.7290434375 -0.3517937500 -2.4832222000
414 1 -1.7203225000 1.7549643750 -3.2022783840
415 1 0.5822065625 1.4675362500 -3.2972294960
416 1 1.1765875000 1.3759731250 -4.0213628640
417 1 1.6243115625 0.7254906250 -2.4346781040
418 1 2.1893046875 0.6631675000 -4.8620642320
419 1 1.7442009375 1.3074284375 -3.2260971120
420 1 -0.5372984375 2.1706668750 -5.7138667592
421 1 -0.0168371875 2.0836590625 -4.8162530080
422 1 0.5281743750 2.0237950000 -5.7105795416
423 1 1.6446021875 1.8596290625 -5.6284690424
424 1 0.4890443750 2.0043240625 -2.4237725200
425 1 -1.6703215625 -2.1260678125 -2.3993709520
426 1 0.4891384375 -1.3824231250 -2.4092144720
427 1 0.6008578125 -0.2399265625 -2.4102894880
428 1 0.5923115625 0.9090065625 -2.4918741360
429 1 -1.1626528125 1.7125421875 -4.0659566000
430 1 1.6504743750 1.8441490625 -2.4024664800
431 1 2.1604409375 -0.9702278125 -4.0350790320
432 1 -0.5483709375 2.2131831250 -2.4978968160
433 1 -1.6582546875 -0.5026296875 -6.4661502112
434 1 1.6717325000 0.1638568750 -6.4417195530
435 1 6.6867553125 -2.1208809375 -4.8631392480
436 1 6.6702137500 -1.5541275000 -4.0669798080
437 1 6.6992253125 -0.3864893750 -4.0841930160
438 1 6.6988490625 0.1558212500 -4.9260212080
439 1 6.6654837500 1.2347046875 -4.8539303760
440 1 2.2590990625 -0.4112681250 -4.8676983520
441 1 2.2787446875 -2.1091634375 -4.1153555280
442 1 3.3787250000 -2.1385646875 -4.0318410320
443 1 3.9981534375 -2.0601568750 -6.3800658312
444 1 4.5267309375 -1.9000087500 -4.0718756640
445 1 5.5579515625 -1.7046006250 -4.1264424400
446 1 6.1374975000 -2.2145134375 -5.7412835528
447 1 2.3329112500 -1.5142987500 -4.8574015120
448 1 2.7465175000 -1.0023300000 -3.2926444880
449 1 2.8490456250 -1.6005675000 -5.7205694192
450 1 3.3886150000 -1.5376128125 -4.8054121840
451 1 3.3511512500 -0.9800237500 -4.0167390000
452 1 3.8858831250 -1.4648353125 -5.7637863576
453 1 4.4305721875 -1.3220618750 -4.8791220160
454 1 5.0713393750 -0.6674540625 -6.4472413792
455 1 4.5447640625 -0.8200368750 -4.0194071120
456 1 5.0098225000 -1.2215896875 -5.6476418880
457 1 5.6061787500 -1.1630559375 -4.9663925920
458 1 6.1549931250 -0.5012993750 -6.3993718234
459 1 5.6506300000 -0.6295065625 -4.0490283360
460 1 6.2213743750 -1.1118725000 -5.6747581952
461 1 2.8173734375 0.1104831250 -6.4583707738
462 1 2.2945203125 0.1235712500 -4.0132678640
463 1 2.8390212500 -0.4774343750 -5.6898977880
464 1 3.3499418750 -0.4311959375 -4.8306297280
465 1 3.3722884375 0.1868887500 -4.1094882720
466 1 3.9163862500 -0.3371200000 -5.6352338720
467 1 4.4874396875 -0.2442265625 -4.7994283600
468 1 4.4416581250 0.3616568750 -4.0870813120
469 1 4.9920178125 -0.0690150000 -5.6846483424
470 1 5.5566346875 -0.0775881250 -4.8564819200
471 1 6.1950100000 0.6363865625 -6.4654268809
472 1 5.6253675000 0.4823659375 -4.0185911360
473 1 6.1068062500 0.0661393750 -5.6581615024
474 1 2.7670634375 0.6636915625 -5.6490342280
475 1 3.3607725000 0.7591246875 -4.9218377120
476 1 3.9090628125 1.2657184375 -6.4428906729
477 1 3.3514200000 1.2801637500 -4.0534320160
478 1 3.9685909375 0.7219700000 -5.6270495032
479 1 4.5230087500 0.9598809375 -4.8419368240
480 1 4.4499356250 1.5209906250 -4.0598950640
481 1 5.0873300000 0.9805612500 -5.6644030712
482 1 5.6149803125 1.0606084375 -4.7765292240
483 1 5.5558418750 1.6869034375 -4.0759166880
484 1 6.1163871875 1.2166446875 -5.7044143896
485 1 2.8010200000 -2.0866287500 -3.2341014480
486 1 3.9515521875 -1.9404421875 -3.2425591040
487 1 5.0565715625 -1.8112406250 -3.1877073840
488 1 6.0910171875 -1.6153890625 -3.2592671840
489 1 6.2106781250 -2.1694306250 -2.4235134800
490 1 2.7962362500 -0.4555581250 -2.4356754080
491 1 2.8413862500 -1.5174968750 -2.4197574000
492 1 3.9206056250 -0.8174837500 -3.2962969520
493 1 3.8809381250 -1.3807165625 -2.4559841440
494 1 5.0734625000 -0.6312131250 -3.2297107200
495 1 4.9864681250 -1.2218987500 -2.4616441680
496 1 6.1796240625 -0.5137290625 -3.1820991680
497 1 6.1682425000 -1.0893378125 -2.3850978480
498 1 2.8046750000 1.2327965625 -3.2086119120
499 1 2.8579278125 0.1266350000 -3.2110598400
500 1 3.9066978125 0.2398325000 -3.2083399200
501 1 3.9408156250 -0.3231584375 -2.3843725360
502 1 5.0049581250 0.4666037500 -3.2991334400
503 1 5.0262431250 -0.0655078125 -2.4367892800
504 1 6.1751762500 0.6577925000 -3.2434916480
505 1 6.1053146875 0.0822240625 -2.4566706000
506 1 2.2831521875 1.2432912500 -4.0922621120
507 1 3.9065231250 1.3441800000 -3.2320550320
508 1 3.9484078125 0.8158578125 -2.4051734480
509 1 5.0208950000 1.5274809375 -3.2417690320
510 1 5.0774265625 0.9930043750 -2.3957055360
511 1 6.1151509375 1.7677837500 -3.2882667120
512 1 6.1468768750 1.2203265625 -2.4397293840
513 1 2.2454868750 1.8037559375 -4.8986665840
514 1 2.8210418750 1.8204990625 -5.6700838184
515 1 3.3786578125 1.8632303125 -4.8632299120
516 1 3.9252818750 1.8882106250 -5.7101210408
517 1 4.4499356250 2.0778003125 -4.9014901200
518 1 5.0776550000 2.0584234375 -5.6306838344
519 1 3.9285068750 1.9364109375 -2.4505831600
520 1 5.0234212500 2.1024581250 -2.4482258960
521 1 2.7675337500 0.6835118750 -2.4056008640
522 1 2.8398275000 1.8290587500 -2.4241999360
523 1 2.8273575000 1.2349600000 -6.4515773202
524 1 -3.8872940625 3.2085390625 -3.2038196720
525 1 -6.1902020625 2.5177978125 -5.7076472088
526 1 -5.6422355938 2.5388275000 -4.8300468880
527 1 -5.0142165625 3.1817850000 -6.4396052686
528 1 -5.6030961875 3.0884481250 -4.0096154000
529 1 -5.0932290625 2.6145478125 -5.6481237024
530 1 -4.5065746875 2.6913431250 -4.9048187840
531 1 -3.9297296875 3.2092109375 -6.4277370919
532 1 -4.4568156250 3.2060396875 -4.0101075760
533 1 -3.8962703125 2.6446075000 -5.6413536920
534 1 -3.3478187500 2.5867859375 -4.8484387280
535 1 -2.7726937500 2.5406146875 -5.6596328496
536 1 -6.2046258750 4.1429559375 -6.4428009155
537 1 -6.0979442188 3.5861193750 -5.6169586000
538 1 -5.5563968438 3.6593134375 -4.7949469680
539 1 -5.6448693438 4.2685025000 -4.0737278000
540 1 -5.0393178125 3.7823875000 -5.7001609528
541 1 -4.4897643750 3.7602425000 -4.8445531280
542 1 -4.5006084375 4.3339565625 -4.0468264960
543 1 -3.9257790625 3.7977196875 -5.6561824368
544 1 -3.3527503125 3.7662759375 -4.8722056480
545 1 -2.8078596875 4.1677481250 -6.4611502730
546 1 -3.3666043750 4.2849768750 -4.0121021840
547 1 -2.7764428125 3.6206403125 -5.6305646760
548 1 -6.1167500000 5.2566828125 -6.4102419189
549 1 -6.6963576156 5.1934056250 -4.0305846880
550 1 -6.1648992500 4.6941084375 -5.6105227512
551 1 -5.5862831875 4.8247746875 -4.8811166240
552 1 -5.5951049063 5.3773112500 -4.0617212960
553 1 -4.9770753125 4.8521871875 -5.6227455536
554 1 -4.4302765625 4.9030346875 -4.8102303280
555 1 -3.8963106250 6.0065490625 -5.6693209456
556 1 -4.5239762500 5.4910193750 -4.0450779760
557 1 -3.9041850000 4.9105462500 -5.6894250400
558 1 -3.3501031250 4.8612171875 -4.8370021120
559 1 -3.3509362500 5.3978975000 -3.9843330960
560 1 -2.8132078125 4.7756471875 -5.7057419696
561 1 -6.1949575938 5.8556325000 -5.6923599632
562 1 -5.6289875625 5.9486871875 -4.8681387200
563 1 -5.5996911250 6.4667162500 -4.0005230960
564 1 -5.0505381250 5.9652556250 -5.6328468184
565 1 -4.4662890625 6.0359368750 -4.8722186000
566 1 -4.9923940625 6.5055371875 -6.4343086777
567 1 -4.4437543750 6.5714884375 -4.0152624720
568 1 -3.9031234375 6.5833134375 -6.4676360388
569 1 -3.3695337500 5.9462415625 -4.8167969920
570 1 -2.7888456250 6.4771571875 -6.4614059454
571 1 -3.3441771875 6.5476906250 -4.0844909120
572 1 -2.8244953125 5.8977053125 -5.6797175160
573 1 -6.2097092813 3.0574881250 -3.2816482400
574 1 -6.1470703750 2.5035271875 -2.4267255760
575 1 -5.0336606250 3.2312887500 -3.2373524000
576 1 -5.0801946875 2.6546990625 -2.4674725680
577 1 -3.9556371875 2.6531403125 -2.4034896880
578 1 -3.3794371875 3.1887859375 -4.1027661840
579 1 -2.8485887500 3.0584959375 -3.2141553680
580 1 -6.1519347500 4.1443534375 -3.1985223040
581 1 -6.1419950313 3.5762293750 -2.4054324880
582 1 -5.0733550000 4.3161787500 -3.2522601520
583 1 -5.0242678125 3.7655234375 -2.3995004720
584 1 -3.9536484375 4.3274259375 -3.2357463520
585 1 -3.9119115625 3.7875206250 -2.4123877120
586 1 -2.7986415625 4.2129384375 -3.2355391200
587 1 -2.7520000000 3.6454325000 -2.4565022240
588 1 -6.1414535000 5.2948050000 -3.2198412960
589 1 -6.1844225938 4.7255387500 -2.4379290560
590 1 -5.0511293750 5.4035546875 -3.1941833840
591 1 -5.0013300000 4.8488009375 -2.3891518240
592 1 -3.9359646875 5.4611209375 -3.2585936800
593 1 -3.8768128125 4.9043650000 -2.4495599520
594 1 -2.7334831250 5.3638200000 -3.2686832880
595 1 -2.8192546875 4.7994315625 -2.4713193120
596 1 -6.1941889688 6.3821540625 -3.2613783600
597 1 -6.1311294688 5.8533615625 -2.3931928480
598 1 -5.0247918750 6.5855709375 -3.2444112400
599 1 -5.0287693750 6.0195162500 -2.4675761840
600 1 -3.8763828125 6.6121771875 -3.2167198640
601 1 -3.9353734375 6.0235878125 -2.4533548880
602 1 -2.8099425000 6.4314293750 -3.2031720720
603 1 -2.8368443750 5.8689893750 -2.3688171840
604 1 -2.2992906250 3.0124456250 -4.0541832320
605 1 -2.2928675000 4.6589962500 -4.8216151360
606 1 -2.2711928125 5.7987650000 -4.8598494400
607 1 -2.2622568750 6.3840487500 -4.0896976160
608 1 -2.7775715625 2.5074106250 -2.3689078480
609 1 -6.6912619813 2.3484181250 -4.7859712320
610 1 -6.7004557844 3.5426759375 -4.8652374720
611 1 -6.7108834053 4.0884534375 -4.0509581840
612 1 -6.7177506706 5.7686918750 -4.8215892320
613 1 -5.0601996875 5.4019825000 -6.4567605811
614 1 -0.6007771875 6.6498962500 -2.4276710720
615 1 -1.6506087500 2.3342818750 -5.6432757688
616 1 -2.1895062500 3.5666484375 -4.8572460880
617 1 -2.2291737500 4.0912887500 -3.9961582720
618 1 -0.5362637500 6.6825762500 -5.7096871488
619 1 -0.0194440625 6.5830850000 -4.8010991680
620 1 1.0986768750 6.4339690625 -4.8732806640
621 1 0.5073596875 6.4670656250 -5.6541502680
622 1 1.6561181250 6.3132062500 -5.6648874760
623 1 0.5325146875 6.4712581250 -2.4222312320
624 1 1.6632400000 6.3783512500 -2.4406489760
625 1 2.2288781250 6.2863312500 -4.8846525200
626 1 -2.2149031250 2.4321875000 -4.8548888240
627 1 -1.0655937500 2.2783684375 -4.8609892160
628 1 -1.1544559375 2.8001868750 -3.9796962800
629 1 0.0624978125 2.6555053125 -4.0433035520
630 1 1.6907331250 2.4118431250 -6.4486137731
631 1 1.1311821875 3.0576762500 -4.9131598720
632 1 -1.6571662500 3.4558965625 -5.7152383760
633 1 -1.1448346875 3.3502375000 -4.8125875920
634 1 -1.0566981250 3.9430865625 -4.0628222160