ITEM: TIMESTEP
87000
ITEM: NUMBER OF ATOMS
2304
ITEM: BOX BOUNDS pp pp pp
-6.7187500000 6.7187500000
-6.7187500000 6.7187500000
-6.4760000000 6.4760000000
ITEM: ATOMS id type x y z
1 1 -6.6654563375 -6.6116860469 -4.0365944160
2 1 -5.5826120625 -6.4615938750 -4.1034137840
3 1 -3.9347687500 -5.6325216250 -5.6978619728
4 1 -4.5278865625 -6.3510475938 -4.0366073680
5 1 -2.7815087500 -6.1028180000 -6.4165452687
6 1 -3.3164421875 -6.1625638125 -3.9629882000
7 1 -6.1866814375 -5.4497299688 -6.4408968420
8 1 -6.6919893531 -5.4589373438 -4.0498313600
9 1 -6.2174869063 -6.0092070000 -5.6373385720
10 1 -5.6627197188 -5.8869902500 -4.8740577840
11 1 -5.5543207500 -5.3570206250 -4.0328383360
12 1 -5.0526075000 -5.8851224375 -5.6098181624
13 1 -4.4603093750 -5.8291955625 -4.8802229360
14 1 -4.4440634375 -5.2371850000 -4.1079340320
15 1 -3.3658384375 -5.6427717500 -4.8448251200
16 1 -2.8329071875 -5.5143441875 -5.7196692552
17 1 -2.7672650000 -4.8903765625 -6.4281466342
18 1 -6.1446623750 -4.8717387500 -5.6753876624
19 1 -5.6007231250 -4.7780256250 -4.8282595120
20 1 -5.0338353125 -4.1920028125 -6.4611159502
21 1 -5.6498479375 -4.2201409375 -4.0212722000
22 1 -5.0502156250 -4.7720459375 -5.6946783712
23 1 -4.5268384375 -4.6508800000 -4.8385304480
24 1 -4.4561168750 -4.0832531250 -4.0360633840
25 1 -3.9466071875 -4.5533506250 -5.6352882704
26 1 -3.3692515625 -4.5303187500 -4.8784744160
27 1 -3.8865415625 -3.9774865625 -3.2500842160
28 1 -2.8182737500 -4.3360796875 -5.6611417576
29 1 -6.1280106250 -3.7725243750 -5.6691059424
30 1 -5.5834398125 -3.6681821875 -4.8376497120
31 1 -5.6115188125 -3.0792971875 -4.0526160400
32 1 -5.0218356250 -3.6299121875 -5.6548224768
33 1 -4.4681971875 -3.5211625000 -4.8102562320
34 1 -3.9267600000 -2.8957946875 -6.4723181350
35 1 -4.5340946875 -2.9085065625 -4.0725491680
36 1 -3.9262762500 -3.4437759375 -5.6522696376
37 1 -3.3756075000 -3.3838581250 -4.8193355840
38 1 -3.3525218750 -2.8293328125 -4.0216866640
39 1 -2.8168359375 -3.2293940625 -5.6249966112
40 1 -6.1201496875 -6.5447867813 -3.2160852160
41 1 -5.0844812500 -6.3914971563 -3.1810241520
42 1 -3.9692359375 -6.1961736875 -3.2914270000
43 1 -2.7615137500 -5.9482450938 -3.0998021600
44 1 -2.8180856250 -6.5394346250 -2.4622917680
45 1 -6.1292509063 -5.4351865625 -3.2502914480
46 1 -6.1934740938 -5.9664542500 -2.4137994800
47 1 -4.9879059375 -5.2695828125 -3.2304489840
48 1 -5.0041518750 -5.8099947188 -2.3994357120
49 1 -3.9538500000 -5.0746987500 -3.1999211200
50 1 -3.7482025000 -5.6559902188 -2.4391465440
51 1 -2.7759187500 -4.4920353125 -2.4279948720
52 1 -2.2537240625 -4.8316950000 -3.9907313840
53 1 -6.2158703750 -4.3316050000 -3.2334279440
54 1 -6.1199561875 -4.8871246875 -2.4223607520
55 1 -5.0493690625 -4.1740906250 -3.3056223920
56 1 -5.0799125000 -4.6998596875 -2.4166489200
57 1 -3.9715740625 -4.5163975000 -2.4022462960
58 1 -3.3211184375 -3.9883709375 -4.0541702800
59 1 -6.1389433750 -3.1848218750 -3.1974472880
60 1 -6.1468164063 -3.7701056250 -2.4384341840
61 1 -5.0463725000 -3.0917806250 -3.2043636560
62 1 -5.0060734375 -3.6618665625 -2.4118178240
63 1 -3.9454381250 -2.8961440625 -3.2933438960
64 1 -3.9329681250 -3.4377962500 -2.4066111200
65 1 -2.7844918750 -2.6768306250 -3.2468721200
66 1 -2.8193084375 -3.8354790625 -3.1484757760
67 1 -2.2777906250 -5.9493684688 -4.0648427280
68 1 -2.2961596875 -5.3603262500 -4.8564171600
69 1 -3.3727453125 -5.0621078125 -4.0395992800
70 1 -2.2774546875 -3.7658862500 -4.0142651680
71 1 -6.2043813125 -2.6232418750 -5.6771711528
72 1 -5.6253110625 -2.5587284375 -4.9169030000
73 1 -5.0041250000 -2.5229712500 -5.6329076928
74 1 -4.4423165625 -2.3513743750 -4.8535029600
75 1 -3.8628781250 -2.3430565625 -5.6247699512
76 1 -6.1964693125 -2.6017821875 -2.4601417360
77 1 -5.0209084375 -2.5093456250 -2.4396646240
78 1 -3.8647325000 -2.3896578125 -2.3925452480
79 1 -2.8323428125 -5.0064496875 -3.1471805760
80 1 -2.8305959375 -3.2514853125 -2.4259484560
81 1 -3.9260478125 -6.2484737813 -6.3907552463
82 1 -6.7106935738 -4.9125215625 -4.8773087360
83 1 -6.7083673409 -3.7771334375 -4.8724905920
84 1 -6.7058728706 -3.2650571875 -4.0004065280
85 1 -3.4558428125 -6.6587625813 -4.9245964880
86 1 -2.7795737500 -6.6517062813 -5.5629150848
87 1 -2.8128584375 -3.7699175000 -6.4758473270
88 1 -6.1439300313 -3.1992403125 -6.4374008382
89 1 -5.0369393750 -3.0629168750 -6.4674546331
90 1 -2.8184350000 -2.6893678125 -6.4731826421
91 1 -2.2194181250 -4.3111531250 -4.8649654800
92 1 -2.2306787500 -3.2250806250 -4.8530884960
93 1 -2.2135325000 -2.6716571875 -4.0249505680
94 1 -1.6415518750 -4.7738600000 -3.2498381280
95 1 -1.6904509375 -5.3479771875 -5.6184338328
96 1 -2.1973268750 -6.4950290625 -4.8674134080
97 1 -1.6120296875 -6.4024944063 -5.6469904024
98 1 -1.0755240625 -6.4224880625 -4.8219130320
99 1 -1.1950640625 -5.7956676563 -4.1045017520
100 1 -0.5424853125 -6.2824908125 -5.7082404104
101 1 0.4784018750 -6.3330695625 -5.6596069456
102 1 0.6161765625 -5.7816765313 -6.4581145832
103 1 -0.0274528125 -5.7977383750 -4.0361929040
104 1 1.6778465625 -6.4403747188 -5.6053976448
105 1 1.0868250000 -6.3786992813 -4.9132634880
106 1 1.0788834375 -5.8681522188 -4.0114416320
107 1 1.6609421875 -5.9091567500 -6.4533404760
108 1 -1.6324815625 -4.7892593750 -6.4195869164
109 1 -1.1077606250 -5.2505150000 -4.8454079600
110 1 -0.5121703125 -5.2223634375 -5.5994954184
111 1 -0.5163090625 -4.1179084375 -5.6140405144
112 1 -1.1224343750 -4.6461768750 -4.0945287120
113 1 -0.5663234375 -4.6641965625 -6.4632059237
114 1 0.0755456250 -5.2482306250 -4.8667528560
115 1 -0.0560881250 -4.6959628125 -4.0477719920
116 1 0.6420034375 -5.2077703125 -5.6671864560
117 1 1.1734565625 -5.3074900000 -4.8270549760
118 1 1.0860859375 -4.7621962500 -4.0158453120
119 1 1.7133350000 -5.2903571875 -5.7129730712
120 1 -1.6821196875 -3.6226962500 -6.4318094598
121 1 -1.6817703125 -4.2030215625 -5.6815813088
122 1 -1.1118859375 -4.0779587500 -4.8726589680
123 1 -0.5701800000 -3.5736896875 -6.4342361465
124 1 -1.1567134375 -3.5629665625 -3.9887497280
125 1 0.0479046875 -4.1029256250 -4.8305779200
126 1 1.1582184375 -3.5696718750 -4.0619414800
127 1 0.0059259375 -3.5287681250 -4.0618249120
128 1 0.6057625000 -4.1090262500 -5.6806992776
129 1 1.1225150000 -4.1706371875 -4.7838471040
130 1 1.7048290625 -3.6333521875 -6.4395250957
131 1 1.0625434375 -3.0239212500 -4.9091577040
132 1 1.6294984375 -4.2681396875 -5.7346702616
133 1 -1.6988493750 -3.0322121875 -5.6743204176
134 1 -1.1219237500 -3.0189090625 -4.8530625920
135 1 -1.1103540625 -2.4409890625 -4.0429538480
136 1 -0.5915993750 -2.9508212500 -5.7062872488
137 1 0.6179637500 -2.4612931250 -6.4317325249
138 1 -0.0662603125 -2.9338228125 -4.8019669520
139 1 0.4684446875 -3.0385681250 -5.6389316680
140 1 1.1123696875 -2.5104340625 -4.0331103280
141 1 1.6865406250 -2.5229712500 -3.2107230880
142 1 1.6736943750 -3.1150275000 -5.5885108272
143 1 -1.6615603125 -5.8587164063 -3.2395930960
144 1 -1.6274828125 -6.4251890000 -2.4221405680
145 1 -0.6155718750 -5.7655905000 -3.2418985520
146 1 -0.5709190625 -6.3494149375 -2.4352738960
147 1 0.5258362500 -5.7835241875 -3.1773975920
148 1 0.5468256250 -6.3878058750 -2.4298858640
149 1 1.6614528125 -5.8884065625 -3.2317571360
150 1 1.6623262500 -6.4859748750 -2.4988423120
151 1 -1.8397953125 -5.3320806250 -2.3983477440
152 1 -0.5761865625 -4.6839631250 -3.2034570160
153 1 -0.5773690625 -5.2515228125 -2.3857324960
154 1 0.5350275000 -4.6164128125 -3.2481802720
155 1 0.5691318750 -5.2094500000 -2.4757488960
156 1 1.7081750000 -4.8047931250 -3.2957659200
157 1 1.6695959375 -5.3378050000 -2.4109759440
158 1 -1.7228084375 -3.6450428125 -3.1928363760
159 1 -1.6584562500 -4.2085040625 -2.4448842800
160 1 -0.5508703125 -3.5337131250 -3.2772963680
161 1 -0.5608275000 -4.0800146875 -2.4567353600
162 1 0.5733378125 -3.5474596875 -3.2696287840
163 1 0.5467718750 -4.0944331250 -2.3935555040
164 1 1.6702812500 -3.7313384375 -3.1885622160
165 1 1.6442662500 -4.3044478125 -2.3909132960
166 1 -1.6647450000 -3.0441312500 -2.4420607440
167 1 0.0257596875 -2.3396703125 -4.0429927040
168 1 -0.5581131250 -2.9971537500 -2.4195890240
169 1 0.5588656250 -2.4481378125 -3.2027446560
170 1 0.5349871875 -3.0252784375 -2.4069996800
171 1 2.1922743750 -6.0481851563 -4.0272560240
172 1 2.2299665625 -5.4690504063 -4.8054898960
173 1 2.1808659375 -4.3070143750 -4.9051037280
174 1 2.2132906250 -2.7128700000 -4.0174772640
175 1 -1.6586040625 -2.4817584375 -3.2081585920
176 1 -0.5519587500 -2.4213165625 -3.2428051920
177 1 1.6837590625 -3.1283440625 -2.4823932720
178 1 -0.0306509375 -6.3950325625 -4.7055781680
179 1 2.2293753125 -3.7787056250 -4.0406095360
180 1 1.6517240625 -2.5856571875 -6.4377391444
181 1 6.6505546875 -6.0438945625 -4.8262130960
182 1 6.6628231250 -4.3608181250 -4.0623688960
183 1 2.2754793750 -6.5758354688 -4.8731511440
184 1 2.7887381250 -6.1226060625 -6.4656560277
185 1 2.8365621875 -6.6625464469 -5.6901645992
186 1 3.3963684375 -6.1675424063 -4.0455442480
187 1 4.4851821875 -6.3148792188 -4.0748287200
188 1 5.5428746875 -6.5604589375 -4.0367627920
189 1 2.7505487500 -3.9201218750 -6.4480130594
190 1 2.2846303125 -4.8667668750 -4.0782739520
191 1 2.7656121875 -5.5233930000 -5.6869939496
192 1 3.3130425000 -5.6228990313 -4.8583340560
193 1 3.9279425000 -4.5944425000 -5.7075565448
194 1 3.3610278125 -5.0435909375 -4.0651406240
195 1 3.8815831250 -5.7308330625 -5.6162786200
196 1 4.5029062500 -5.7688692500 -4.9011145120
197 1 4.4383121875 -5.2533368750 -4.0133067200
198 1 5.0439268750 -5.8866570000 -5.6785816256
199 1 5.6148593750 -5.9725078438 -4.8101008080
200 1 5.6073209375 -5.3948162813 -4.0402080240
201 1 6.1155540625 -6.0550167813 -5.7796279488
202 1 2.7981175000 -4.4634537500 -5.6175207168
203 1 3.3808078125 -4.4862975000 -4.8797437120
204 1 3.3054906250 -3.9674487500 -3.9997071200
205 1 3.9002209375 -3.4378768750 -5.6927627704
206 1 4.4600809375 -4.6853875000 -4.8264591840
207 1 4.5158465625 -4.1182040625 -4.0384076960
208 1 5.0017868750 -4.7563912500 -5.7149417752
209 1 5.5421759375 -4.8555868750 -4.8735915120
210 1 6.1343396875 -4.4174437500 -6.4502988283
211 1 5.6231503125 -4.2868178125 -4.0803980800
212 1 6.1360193750 -4.9586256250 -5.6139848208
213 1 2.2798196875 -3.2233203125 -4.8938613920
214 1 2.7832556250 -2.7731371875 -6.4615030854
215 1 2.8433212500 -3.3160659375 -5.6996273304
216 1 3.3489475000 -3.4129906250 -4.8108002160
217 1 3.3962475000 -2.8198862500 -4.0438086800
218 1 4.4220393750 -3.5627784375 -4.8418979680
219 1 4.4855853125 -2.9649709375 -4.0971061600
220 1 5.0070812500 -3.6388346875 -5.6056243048
221 1 5.6077106250 -3.7293900000 -4.9054275280
222 1 5.5567959375 -3.1968215625 -4.0469819200
223 1 6.1818278125 -3.8201200000 -5.6791385616
224 1 2.8185290625 -6.0950430625 -3.2969056960
225 1 2.7735134375 -6.6286928156 -2.4355717920
226 1 3.9367709375 -6.3098777813 -3.2016048800
227 1 5.0172400000 -6.4269735000 -3.1936782560
228 1 6.1638753125 -6.5535453438 -3.3160358000
229 1 2.7993537500 -5.0298981250 -3.2070835760
230 1 2.7586515625 -5.5907430938 -2.3891259200
231 1 3.8911506250 -5.1320768750 -3.1955303920
232 1 3.9170178125 -5.7158435313 -2.4523705360
233 1 5.0446256250 -5.2914053125 -3.2733460080
234 1 5.0670931250 -5.8399361563 -2.4576031440
235 1 6.1804571875 -5.4833788125 -3.2504339200
236 1 6.1530178125 -6.0538262188 -2.4100563520
237 1 2.7747228125 -3.8369437500 -3.1805708320
238 1 2.8000659375 -4.4420746875 -2.4727699360
239 1 3.9321350000 -4.0111071875 -3.2919709840
240 1 3.9327262500 -4.5376959375 -2.4308961200
241 1 5.0674693750 -4.1983184375 -3.2260064480
242 1 4.9922059375 -4.7615512500 -2.4083207840
243 1 6.1358581250 -4.3565181250 -3.1659998320
244 1 6.1576537500 -4.9564084375 -2.4252620000
245 1 2.8269812500 -2.7074815625 -3.2857281200
246 1 2.8104531250 -3.2351721875 -2.4352609440
247 1 3.9449946875 -2.9462525000 -3.2135336720
248 1 3.8735071875 -3.4919225000 -2.3796450560
249 1 5.0079278125 -3.0793375000 -3.2077441280
250 1 5.0305296875 -3.6485096875 -2.4081524080
251 1 6.1350653125 -3.2026668750 -3.2761306880
252 1 6.1689143750 -3.7486459375 -2.4420348400
253 1 6.6756290625 -2.7250309375 -4.8508478000
254 1 3.9053271875 -2.3513071875 -5.6085100104
255 1 4.5124468750 -2.3993596875 -4.8977210880
256 1 5.0742821875 -2.5383840625 -5.6815372720
257 1 5.6189712500 -2.6112825000 -4.8103728000
258 1 6.1291125000 -2.6464350000 -5.7088595160
259 1 3.9400496875 -2.3677546875 -2.4375923040
260 1 5.0880153125 -2.5122346875 -2.4263888240
261 1 6.1511500000 -2.6696684375 -2.4156127600
262 1 3.3151253125 -2.2808812500 -4.8716746160
263 1 4.9866696875 -5.3143431250 -6.4735136305
264 1 5.0798856250 -4.1570250000 -6.4748939264
265 1 3.9031100000 -4.0204731250 -6.4675864456
266 1 6.1368928125 -3.2511225000 -6.4470561656
267 1 3.8315418750 -5.1810565625 -6.4450118219
268 1 -2.7838603125 -2.1178978125 -5.6549869672
269 1 -2.8008587500 -2.1362131250 -2.4182549680
270 1 -6.1220860313 -2.0317768750 -6.4351949830
271 1 -5.0377859375 -1.9468518750 -6.3990780720
272 1 -5.5785687188 -2.0241981250 -4.0218550400
273 1 -4.4926668750 -1.7880475000 -4.0325922480
274 1 -3.3140100000 -2.2353818750 -4.7873830000
275 1 -3.4020390625 -1.6340268750 -4.0668502880
276 1 -6.2007236250 -1.4803825000 -5.6155040904
277 1 -5.5784074688 -1.4891303125 -4.8656778400
278 1 -5.5851840000 -0.9330596875 -4.0648427280
279 1 -5.0496915625 -1.3301243750 -5.6976288368
280 1 -4.4823468750 -1.2519450000 -4.8962834160
281 1 -3.9096540625 -0.6520950000 -6.3955425646
282 1 -4.4514943750 -0.7328409375 -3.9697750480
283 1 -3.8826581250 -1.2530334375 -5.6695035688
284 1 -3.3584612500 -1.0567250000 -4.8361084240
285 1 -2.7989237500 -0.5129900000 -6.4750360707
286 1 -3.3483025000 -0.4920678125 -4.0297557600
287 1 -2.7726937500 -1.0581493750 -5.6132439664
288 1 -6.7121900409 0.1487262500 -4.0208577360
289 1 -6.1419144063 -0.4200428125 -5.6381221680
290 1 -5.6040085938 -0.3396059375 -4.7906339520
291 1 -5.5509506250 0.2626225000 -4.0580040720
292 1 -5.0704121875 -0.1846715625 -5.6279781616
293 1 -4.4665175000 -0.2187625000 -4.8610410240
294 1 -3.9013900000 0.5623996875 -6.4295195462
295 1 -4.4530396875 0.3578809375 -4.0715000560
296 1 -3.9421325000 -0.0414412500 -5.7010390984
297 1 -3.3739278125 0.0412800000 -4.9077588880
298 1 -2.8028071875 0.6339812500 -6.3894013738
299 1 -3.3542418750 0.5560706250 -3.9900708320
300 1 -2.7634487500 0.0322500000 -5.6555918256
301 1 -6.7016862563 0.7077800000 -4.8314068480
302 1 -6.1628406250 0.6710015625 -5.6852778096
303 1 -5.6315178438 0.8327756250 -4.8328833760
304 1 -5.0090565625 1.3951887500 -6.4687638860
305 1 -5.5966811250 1.3740784375 -3.9833746480
306 1 -5.0490868750 0.8668262500 -5.6171269760
307 1 -4.4851956250 0.9491040625 -4.8150096160
308 1 -4.4364712500 1.5377740625 -4.0749193840
309 1 -3.9424818750 1.1139418750 -5.6130665240
310 1 -3.3261306250 1.0880343750 -4.8649784320
311 1 -2.7853653125 1.8569146875 -6.4386033018
312 1 -2.8045943750 1.2536784375 -5.7059349544
313 1 -6.1468741875 -2.0109621875 -3.2111246000
314 1 -5.0260953125 -1.9292756250 -3.1814127120
315 1 -3.9192350000 -1.8205125000 -3.2092724640
316 1 -2.8177228125 -1.5905565625 -3.2855467920
317 1 -6.1591036563 -0.9227531250 -3.2526746160
318 1 -6.1497766875 -1.4649428125 -2.3805646480
319 1 -5.0536421875 -0.7451765625 -3.2290890240
320 1 -5.0392506250 -1.3136096875 -2.4603748720
321 1 -3.8837734375 -0.6403371875 -3.1853630720
322 1 -3.8998984375 -1.2403350000 -2.4523834880
323 1 -2.7790765625 -0.5239415625 -3.2132875840
324 1 -2.7552787500 -1.0745968750 -2.3842300640
325 1 -6.1233142188 0.1312575000 -3.2661446960
326 1 -6.1754087188 -0.3881287500 -2.3752543280
327 1 -5.0058315625 0.3519012500 -3.2178596400
328 1 -5.0376112500 -0.2007025000 -2.3885301280
329 1 -3.9327665625 0.5565946875 -3.2130803520
330 1 -3.9136181250 -0.0398556250 -2.4688325280
331 1 -6.1797463438 1.2770731250 -3.2274052640
332 1 -6.1539799375 0.6893437500 -2.4662291760
333 1 -4.9850034375 1.4289168750 -3.2685796720
334 1 -5.0908640625 0.9047334375 -2.3915220400
335 1 -2.8223990625 1.8380753125 -3.1976545200
336 1 -3.9312750000 1.0912459375 -2.3757724080
337 1 -2.7856340625 0.6458331250 -3.1994289440
338 1 -2.7897056250 1.2418131250 -2.4612815120
339 1 -2.2645815625 -0.3370796875 -4.0903063600
340 1 -2.2449493750 1.8610400000 -3.9810432880
341 1 -6.1238248438 1.8465140625 -5.6839903808
342 1 -5.5725433438 1.9030859375 -4.8461591760
343 1 -5.0180059375 1.9884812500 -5.6964281864
344 1 -4.5121781250 2.1333643750 -4.8076140240
345 1 -3.9334653125 2.1543000000 -5.6271233296
346 1 -3.3404281250 1.6532828125 -4.0703991360
347 1 -6.1097114375 1.8450628125 -2.4441460160
348 1 -5.0247918750 1.9815878125 -2.4362582480
349 1 -3.8869312500 1.6473031250 -3.2214732480
350 1 -2.7884290625 0.0653196875 -2.4415815200
351 1 -2.2472337500 1.3366281250 -4.8819973600
352 1 -6.6683014594 -2.1480515625 -4.0577709360
353 1 -6.7155423478 -1.0155121875 -4.0793748720
354 1 -6.7162743153 -0.4134853125 -4.8209286800
355 1 -6.6919571031 1.8150568750 -4.8959984720
356 1 -3.9731462500 2.1951231250 -2.3928560960
357 1 -3.9290712500 -1.8083246875 -6.4754919267
358 1 -5.0307581250 -0.7445987500 -6.4377383673
359 1 -6.1513233438 1.2589996875 -6.4404444286
360 1 -2.2296306250 -2.1011143750 -4.8186879840
361 1 -2.2258815625 -1.5236915625 -4.0352344560
362 1 -2.2365912500 0.2490237500 -4.8375849520
363 1 1.7205375000 -1.4354743750 -3.2912197680
364 1 -1.6578246875 0.7907431250 -3.2143755520
365 1 -1.6484453125 -1.3673193750 -6.4607874874
366 1 -1.6796337500 -1.9342475000 -5.6612492592
367 1 -1.0682140625 -1.3193475000 -4.0520332000
368 1 -0.5685540625 -1.8392443750 -5.6566512992
369 1 -0.5545253125 -1.2709053125 -3.1595756400
370 1 -1.1185509375 -1.8931959375 -4.8460037520
371 1 0.0379071875 -1.8234553125 -4.9138463280
372 1 -0.0213387500 -1.2871243750 -4.0173347920
373 1 0.6118631250 -1.8815590625 -5.6704451792
374 1 1.1554906250 -1.9383325000 -4.8435169680
375 1 1.1149093750 -1.3944093750 -4.0303256480
376 1 1.7147325000 -1.9598996875 -5.7010559360
377 1 -2.2121484375 -0.9533368750 -4.7909059440
378 1 -1.6791096875 -0.8233425000 -5.6303703960
379 1 -1.0848093750 -0.7646878125 -4.8657296480
380 1 -0.5798953125 -0.1404353125 -6.4367357530
381 1 -0.5424315625 -0.0927590625 -3.2532445040
382 1 -0.5196684375 -0.6937915625 -5.6501131296
383 1 0.0593937500 -0.7364825000 -4.8672191280
384 1 0.6067165625 -0.7278018750 -5.7052264800
385 1 0.0121475000 -0.1918068750 -4.0310768640
386 1 0.5580459375 -1.3238087500 -6.4569505870
387 1 1.1247187500 -0.8121221875 -4.8005681360
388 1 1.7165331250 -0.3189256250 -6.4285489233
389 1 1.1537975000 -0.2173381250 -4.0617083440
390 1 1.6353975000 -0.9404368750 -5.6975032024
391 1 -2.2394131250 0.7933365625 -4.0117265760
392 1 -1.6496278125 0.2613593750 -5.6181178040
393 1 -1.1329828125 -0.2301575000 -4.0125555040
394 1 -1.0915953125 0.3376306250 -4.8033657680
395 1 -0.5671834375 0.4613900000 -5.6820980936
396 1 -0.0255850000 0.3892575000 -4.8121213200
397 1 0.5893150000 0.9571531250 -6.4258034878
398 1 0.0200890625 0.9875218750 -4.0569549600
399 1 0.5053171875 0.3719231250 -5.6456317376
400 1 1.1112543750 0.3286543750 -4.9083287760
401 1 1.7072343750 0.2081334375 -5.6012452336
402 1 1.0989590625 0.8573528125 -4.0517741600
403 1 -1.6615200000 1.9430221875 -6.3941206940
404 1 -1.6607809375 1.3408878125 -5.6806720784
405 1 -1.1324990625 0.9420090625 -4.0632107760
406 1 -1.1462053125 1.5058465625 -4.8258633920
407 1 -0.5590537500 1.5162337500 -5.6076746064
408 1 0.0250071875 1.5435925000 -4.8515860640
409 1 -0.0293878125 2.1175215625 -4.0699069600
410 1 0.5912096875 1.5241484375 -5.6243101552
411 1 1.1773937500 1.4335528125 -4.8545779760
412 1 1.7275787500 1.3451743750 -5.7072573536
413 1 1.6182646875 0.7545962500 -6.4538650320
414 1 -1.6541025000 -1.3764837500 -3.2620648160
415 1 -0.5782021875 -0.6556290625 -2.4618643520
416 1 0.5746815625 -1.2664440625 -3.2328580560
417 1 0.5848671875 -1.8535284375 -2.4710214160
418 1 1.6849550000 -0.9232100000 -2.3798004800
419 1 -1.6662903125 -0.8281800000 -2.3963531360
420 1 -0.5535578125 0.4378206250 -2.3965085600
421 1 -0.5565140625 0.9826171875 -3.2632693520
422 1 0.5897718750 -0.1603496875 -3.2478953280
423 1 1.6798756250 -0.3652446875 -3.1993771360
424 1 -1.6810984375 1.3689587500 -2.4394314880
425 1 -1.7091828125 -0.2936362500 -3.2543065680
426 1 -0.5435603125 2.0663650000 -3.2000765440
427 1 -1.6426671875 0.2410150000 -2.3899937040
428 1 -0.5395021875 1.5117725000 -2.3882192800
429 1 0.5486800000 0.9488621875 -3.2060992240
430 1 1.6658200000 0.8098109375 -3.2272239360
431 1 1.7075434375 0.2270400000 -2.4588206320
432 1 -1.6667740625 1.9422159375 -3.2175617440
433 1 0.5482096875 2.0897596875 -3.2520529200
434 1 1.1074918750 1.9735925000 -4.0221917920
435 1 1.6818778125 1.3623206250 -2.4172447120
436 1 2.2206678125 -2.1320878125 -4.8007494640
437 1 2.2258546875 -0.9573143750 -4.9128231200
438 1 1.7103250000 1.9009090625 -3.2933698000
439 1 -1.7162240625 -1.9054778125 -2.4149910640
440 1 -0.5472556250 -1.8761840625 -2.4264535840
441 1 1.6813940625 -1.9651806250 -2.4153796240
442 1 0.5572262500 -0.7156275000 -2.4209101280
443 1 0.5564334375 0.3810875000 -2.4071162480
444 1 0.5962084375 1.5234631250 -2.4386025600
445 1 -1.1054493750 2.0785393750 -4.0323591120
446 1 2.2199959375 -0.4135659375 -4.0782091920
447 1 2.2147015625 0.6791178125 -4.0210261120
448 1 2.2324928125 1.2747887500 -4.7844169920
449 1 -0.5747621875 2.0777465625 -6.4615493241
450 1 -0.5382121875 -1.2589190625 -6.4551755154
451 1 2.3090193750 0.1551493750 -4.8801193200
452 1 6.6870912500 -1.5940368750 -4.8482962560
453 1 6.7055409375 1.2900940625 -4.0304292640
454 1 2.2852753125 -1.5227240625 -4.0950856480
455 1 2.7720487500 -2.1653456250 -5.6839113736
456 1 3.3573728125 -1.6953287500 -4.0963031360
457 1 4.4296853125 -1.8784146875 -4.0160784480
458 1 5.6163778125 -2.0391540625 -4.0240050720
459 1 2.7362915625 -0.5522140625 -6.4449977042
460 1 2.7643625000 -0.4901596875 -3.2234678560
461 1 2.8315096875 -1.1098434375 -5.6092236656
462 1 3.4221012500 -1.1194512500 -4.8792644880
463 1 3.3100862500 -0.5971490625 -4.0229430080
464 1 3.9631084375 -1.2362365625 -5.7117801920
465 1 4.4918606250 -1.3013815625 -4.8154111280
466 1 5.0876659375 -0.8100393750 -6.4723918577
467 1 4.5319984375 -0.7435506250 -4.0039553760
468 1 5.0131146875 -1.4137325000 -5.7350989728
469 1 5.5385881250 -1.4879612500 -4.8409913280
470 1 5.6568381250 -0.9225112500 -4.0343019120
471 1 6.0995634375 -1.5490481250 -5.6370510376
472 1 2.8646062500 0.0325187500 -5.6926708112
473 1 3.3807137500 -0.0194709375 -4.7965400640
474 1 3.4267103125 0.5666728125 -4.0270617440
475 1 3.9014571875 -0.1010096875 -5.7086665312
476 1 4.4379493750 -0.2027718750 -4.8521948080
477 1 5.0495975000 0.3072484375 -6.4243502734
478 1 4.5198375000 0.3659434375 -4.0598173520
479 1 5.0043400000 -0.2707925000 -5.6451032960
480 1 5.5910750000 -0.3895396875 -4.9122014240
481 1 5.5724775000 0.1475975000 -4.0491449040
482 1 6.1973481250 -0.4241412500 -5.6468582920
483 1 2.7514221875 1.1482881250 -5.7118591992
484 1 3.2907228125 1.1057987500 -4.8665715280
485 1 3.9188184375 1.5610881250 -6.4204316458
486 1 3.3988812500 1.6592625000 -4.0383170320
487 1 3.8814487500 1.0131606250 -5.6066954352
488 1 4.4899928125 0.9187353125 -4.9142737440
489 1 4.4472078125 1.4382156250 -4.0549603520
490 1 5.0957821875 0.8800084375 -5.6285882008
491 1 5.6447981250 0.7152378125 -4.8275082960
492 1 5.5941118750 1.3102503125 -4.0741293120
493 1 6.1925240625 0.7053075000 -5.6874938968
494 1 2.8029281250 -1.6417937500 -3.2197117760
495 1 2.7846396875 -2.1871815625 -2.3724048880
496 1 3.8737893750 -1.7903184375 -3.2038067200
497 1 5.0259475000 -1.9716709375 -3.2772057040
498 1 6.1865846875 -2.1033046875 -3.2607566640
499 1 2.8136512500 0.0624843750 -2.4170892880
500 1 2.8346540625 -1.0722184375 -2.4408044000
501 1 3.9187109375 -0.6745625000 -3.3027859040
502 1 3.9575184375 -1.2110278125 -2.4375793520
503 1 5.0863490625 -0.8612765625 -3.2158779840
504 1 5.0123890625 -1.4308787500 -2.4357660720
505 1 6.2011509375 -0.9926012500 -3.1855703040
506 1 6.1332243750 -1.5737059375 -2.4214282080
507 1 2.8322621875 1.6907062500 -3.1861272400
508 1 2.8262287500 0.6033706250 -3.2969704560
509 1 3.9637534375 0.4149634375 -3.1993512320
510 1 3.8774712500 -0.1585625000 -2.4141750880
511 1 5.0497050000 0.3243140625 -3.1833684640
512 1 5.0316584375 -0.2793521875 -2.4589501520
513 1 6.1510021875 0.1535637500 -3.2644738880
514 1 6.1721259375 -0.3981128125 -2.4331238640
515 1 2.3099868750 1.8540390625 -4.0291599680
516 1 3.9383700000 1.6081596875 -3.1733177120
517 1 3.9084581250 1.0043053125 -2.4617348320
518 1 5.0361196875 1.4275865625 -3.2704836160
519 1 5.0705600000 0.8959990625 -2.3988658240
520 1 6.1327137500 1.2429150000 -3.2364587120
521 1 6.1912609375 0.6765512500 -2.4014303200
522 1 3.4003996875 2.1948678125 -4.9139110880
523 1 4.5023821875 2.0447440625 -4.7959831280
524 1 5.0440746875 1.9765487500 -5.6739655328
525 1 5.5848668750 1.8988262500 -4.8270938320
526 1 6.1471456250 1.8048040625 -5.6242259672
527 1 3.9553146875 2.1955800000 -2.4125560880
528 1 5.0498796875 1.9545650000 -2.3747880560
529 1 6.1638887500 1.7956531250 -2.4420477920
530 1 2.7572675000 1.1118725000 -2.4092533280
531 1 3.9888950000 2.1656546875 -5.6704969872
532 1 3.8205500000 -1.8185640625 -6.4572373442
533 1 6.1819084375 -0.9881668750 -6.4572074251
534 1 3.9947403125 0.4877275000 -6.4709535122
535 1 6.1351325000 0.1199431250 -6.4665196152
536 1 2.8758131250 1.7410565625 -6.4651361214
537 1 -6.1386302813 6.3342762500 -5.6262555456
538 1 -5.5867414063 6.3679237500 -4.8071995600
539 1 -5.0710168750 6.4836878125 -5.6531685064
540 1 -4.4480678125 6.5262443750 -4.8718948000
541 1 -3.9437584375 6.5036828125 -5.8812661784
542 1 -6.2043396563 6.3537203125 -2.3965085600
543 1 -4.9954712500 6.4522575000 -2.4204179520
544 1 -3.9372009375 6.6707646875 -2.4829761120
545 1 -3.8695834375 2.7203009375 -3.2830211520
546 1 -6.1920537500 2.4163984375 -6.4579616201
547 1 -5.6482555938 2.4731584375 -4.0483677840
548 1 -4.4938896875 2.6862368750 -3.9850325040
549 1 -3.3872578125 2.2550275000 -4.8103339440
550 1 -2.8432809375 2.3897250000 -5.6084102800
551 1 -6.6632055563 3.4975259375 -4.0464508880
552 1 -6.1407749063 2.9688275000 -5.6274264064
553 1 -5.5611913438 3.0198228125 -4.8689287920
554 1 -5.0790256250 3.6817406250 -6.4686098478
555 1 -5.5751233438 3.5961168750 -4.0765383840
556 1 -4.9867234375 3.1291234375 -5.6586536784
557 1 -4.4115984375 3.2134034375 -4.8482185440
558 1 -3.9467012500 3.9266390625 -6.4433149804
559 1 -4.5304262500 3.7939840625 -4.0683915760
560 1 -3.8989846875 3.3028165625 -5.7229409304
561 1 -3.3860618750 3.4353640625 -4.8232341360
562 1 -2.7733387500 4.0050603125 -6.4506245711
563 1 -3.3783890625 3.9751618750 -3.9836854960
564 1 -2.8219959375 3.4383068750 -5.6329802240
565 1 -6.2165073125 4.1012996875 -5.6471186272
566 1 -5.6189524375 4.1549153125 -4.8971771040
567 1 -5.5844140313 4.6663600000 -3.9914048880
568 1 -5.0199409375 4.2274375000 -5.6161581664
569 1 -4.4196878125 4.3475284375 -4.8859218160
570 1 -3.9655675000 5.1198218750 -6.4728097411
571 1 -4.4699306250 4.8989631250 -4.0683527200
572 1 -3.8645040625 4.4825350000 -5.6756907392
573 1 -3.3021043750 4.5099206250 -4.8510420800
574 1 -3.4080859375 5.0891843750 -4.0579134080
575 1 -2.7683803125 4.5913921875 -5.7084074912
576 1 -6.6657862281 5.2116671875 -4.8898462720
577 1 -6.1228963125 5.2666534375 -5.6938857088
578 1 -5.5696193438 5.2245940625 -4.8030808240
579 1 -5.6507092813 5.8038846875 -4.0546106480
580 1 -5.0706137500 5.3603262500 -5.6729993136
581 1 -4.4930700000 5.4571031250 -4.8776454880
582 1 -4.4542893750 5.9966456250 -4.0033207280
583 1 -3.8847006250 5.5840606250 -5.6883202344
584 1 -3.3471603125 5.6397859375 -4.8378310400
585 1 -2.9619609375 6.2530465625 -6.4619437125
586 1 -3.3220590625 6.2483837500 -4.0875734880
587 1 -2.7417337500 5.7036006250 -5.6260120480
588 1 -6.1680127188 2.4365412500 -3.1983150720
589 1 -5.0673618750 2.5446593750 -3.2456805360
590 1 -3.3053965625 2.8395721875 -4.0572010480
591 1 -2.7595250000 2.9345350000 -3.2079902160
592 1 -6.1137010313 3.5229900000 -3.2105029040
593 1 -6.1888153125 2.9835684375 -2.3721847040
594 1 -5.0446525000 3.6680881250 -3.1648730080
595 1 -4.9786475000 3.0881659375 -2.4095900800
596 1 -3.9679862500 3.8379650000 -3.2507706720
597 1 -3.8900353125 3.2659037500 -2.4461017680
598 1 -2.7620109375 4.0300137500 -3.2869715120
599 1 -2.8535203125 3.5167415625 -2.4137994800
600 1 -6.1865013750 4.6473459375 -3.2449034160
601 1 -6.1891337813 4.1026434375 -2.4326964480
602 1 -5.0002146875 4.8129765625 -3.2309800160
603 1 -5.0651715625 4.2651834375 -2.4196796880
604 1 -3.9229840625 4.9588675000 -3.1773975920
605 1 -3.8607684375 4.3746990625 -2.4073105280
606 1 -2.8511015625 5.1676862500 -3.2557830960
607 1 -2.7777731250 4.5951546875 -2.4559193840
608 1 -6.1731418125 5.7801943750 -3.2165126320
609 1 -6.1138636250 5.2226456250 -2.4330332000
610 1 -5.0529568750 5.9445484375 -3.2921652640
611 1 -5.0622959375 5.3859112500 -2.4485626480
612 1 -3.8591156250 6.0993887500 -3.2361090080
613 1 -3.9544412500 5.5377953125 -2.4255728480
614 1 -2.7945700000 6.2678009375 -3.1652615680
615 1 -2.7334562500 5.7011684375 -2.3936720720
616 1 -2.2493031250 5.2595046875 -3.9668090400
617 1 -2.2686531250 6.4068790625 -4.0321648320
618 1 -2.8098484375 2.3870778125 -2.3722883200
619 1 -2.2599187500 3.5608568750 -4.8292697680
620 1 -2.2613028125 4.7154068750 -4.8105670800
621 1 -5.0514653125 2.5547643750 -6.4577997201
622 1 -3.8909893750 2.7139181250 -6.4633552085
623 1 -6.1263040625 3.5250593750 -6.4376232240
624 1 -6.1270350625 4.6534331250 -6.4432306629
625 1 -5.0156275000 4.7676115625 -6.4298854402
626 1 -2.8472987500 5.1778718750 -6.4727263172
627 1 -4.9193746875 5.9476256250 -6.4661182327
628 1 1.1233078125 2.5668984375 -4.7760629520
629 1 -2.2230596875 2.3809234375 -4.8570518080
630 1 -1.6615871875 3.1246084375 -6.4360246882
631 1 -2.2234225000 2.9666371875 -4.0852291760
632 1 -1.7047215625 2.5463793750 -5.6769846440
633 1 -1.1055568750 2.6097909375 -4.9022931440