ITEM: TIMESTEP
114000
ITEM: NUMBER OF ATOMS
2304
ITEM: BOX BOUNDS pp pp pp
-6.7187500000 6.7187500000
-6.7187500000 6.7187500000
-6.4760000000 6.4760000000
ITEM: ATOMS id type x y z
1 1 -6.2182582188 -5.9036137813 -6.4698145263
2 1 -6.1713116250 -6.4519806875 -5.6602856304
3 1 -5.6349202188 -6.3239334063 -4.8134553760
4 1 -5.5835795625 -5.7481325000 -4.0493521360
5 1 -5.0900981250 -6.2995980938 -5.6599942104
6 1 -4.5222562500 -6.3167228438 -4.8659368800
7 1 -3.9102050000 -5.1773209375 -5.6182097632
8 1 -4.4670818750 -5.7292756563 -4.0785200400
9 1 -3.9552878125 -6.3196025000 -5.6552822728
10 1 -3.3834281250 -6.4005715000 -4.9061010320
11 1 -3.4248962500 -5.8483520625 -4.0597914480
12 1 -2.7599818750 -6.4859842813 -5.6019588888
13 1 -6.2616465625 -4.6886259375 -6.4036628210
14 1 -6.1845300938 -5.3229968750 -5.7266050512
15 1 -5.6730370313 -5.1965096875 -4.8556141360
16 1 -5.1206550000 -4.6195034375 -6.4258734286
17 1 -5.6578674375 -4.6381143750 -4.0424746240
18 1 -5.0793078125 -5.2071521875 -5.6415790568
19 1 -4.5083887500 -5.1672965625 -4.8736174160
20 1 -4.5470484375 -4.6100165625 -4.0686894720
21 1 -3.4069303125 -4.7370009375 -4.0091102720
22 1 -2.7952150000 -5.3766111563 -5.7087830992
23 1 -6.2309109688 -4.1431037500 -5.6237558096
24 1 -5.0284200000 -4.0499818750 -5.6709347648
25 1 -5.5936926250 -3.5782718750 -4.0421767280
26 1 -4.4776437500 -4.0279578125 -4.8291272960
27 1 -3.9291384375 -4.1110284375 -5.6948713560
28 1 -4.4953006250 -3.4655312500 -4.0140449840
29 1 -3.4058284375 -4.1576162500 -4.7832772160
30 1 -3.3306456250 -5.2812196875 -4.8471694320
31 1 -2.7746690625 -3.6837159375 -6.4491130727
32 1 -3.9044403125 -3.5511550000 -3.2790837440
33 1 -2.8878128125 -4.2659628125 -5.7043910760
34 1 -6.6921308500 -3.1272421875 -4.7950117280
35 1 -6.1869380938 -3.0649862500 -5.7085706864
36 1 -5.6242051563 -2.9909993750 -4.8400846880
37 1 -5.6159169063 -4.1076018750 -4.9208145040
38 1 -5.5676359688 -2.4417281250 -4.0192775920
39 1 -5.0989534375 -2.9156418750 -5.6904288200
40 1 -4.5305606250 -2.9247928125 -4.8463534560
41 1 -4.4026356250 -2.3635487500 -4.0359338640
42 1 -4.0024668750 -2.9939825000 -5.6693934768
43 1 -3.4068765625 -3.0570715625 -4.9039510000
44 1 -2.8449740625 -2.5995112500 -6.4329967696
45 1 -3.3517021875 -2.4977490625 -4.0691427920
46 1 -2.8044331250 -3.1492528125 -5.5972819216
47 1 -6.1456701875 -5.8830248438 -3.2764026800
48 1 -6.2389680938 -6.3944870000 -2.4138253840
49 1 -5.0265790625 -5.7196906875 -3.2402147920
50 1 -5.0776953125 -6.2873672813 -2.4111184160
51 1 -3.9598834375 -5.7689606250 -3.1687845120
52 1 -3.9699212500 -6.3620475313 -2.3983088880
53 1 -2.8795890625 -5.9257547500 -3.2121348560
54 1 -2.8010737500 -6.4938465625 -2.4190968480
55 1 -6.2124155938 -4.7280381250 -3.1956728640
56 1 -6.1692261250 -5.3243003125 -2.4608152400
57 1 -5.0902862500 -4.6358031250 -3.2308634480
58 1 -5.0747390625 -5.1892803125 -2.3866132320
59 1 -3.9932084375 -4.6449271875 -3.2539827680
60 1 -3.9060259375 -5.1834753125 -2.4239927040
61 1 -2.8641762500 -4.2716737500 -2.4355847440
62 1 -6.1793324688 -3.5692284375 -3.2060215120
63 1 -6.1683876250 -4.1527384375 -2.4359214960
64 1 -5.0638681250 -3.4963568750 -3.2016307840
65 1 -5.0144718750 -4.0735378125 -2.4373591680
66 1 -3.9180793750 -4.0831456250 -2.4228917840
67 1 -3.3087559375 -3.5689731250 -4.0295355760
68 1 -6.1604487500 -2.4843653125 -3.3005322560
69 1 -6.1669672813 -3.0060090625 -2.4174130880
70 1 -4.9911712500 -2.3592487500 -3.2541770480
71 1 -5.0473803125 -2.9122690625 -2.4336808000
72 1 -3.8825506250 -2.4067234375 -3.1636684720
73 1 -3.9408962500 -3.0052296875 -2.4398200480
74 1 -2.8072550000 -2.5407893750 -3.1920463040
75 1 -2.7665528125 -3.6994378125 -3.2008148080
76 1 -2.3193259375 -6.0348403750 -4.0011188880
77 1 -2.8061934375 -4.8100740625 -3.2895619120
78 1 -2.3360690625 -4.3559671875 -4.8810130080
79 1 -2.2917790625 -2.6948906250 -4.0635993360
80 1 -2.7879990625 -5.3469693750 -2.4405453600
81 1 -2.7887918750 -3.1192468750 -2.4250936240
82 1 -3.9812356250 -5.7281280938 -6.4354266943
83 1 -2.2714346875 -5.4555793125 -4.7881860240
84 1 -6.6747154469 -3.7324134375 -4.0613456880
85 1 -5.0974753125 -3.4858756250 -6.4716856629
86 1 -3.8811665625 -2.4213031250 -6.4242623294
87 1 -2.1854212500 -6.5723578438 -4.8464700240
88 1 -2.2289856250 -3.8010387500 -4.0783646160
89 1 -1.6440646875 -4.9948531250 -3.1985482080
90 1 -1.7578534375 -5.5560447813 -5.7127736104
91 1 -2.1977971875 -4.8885087500 -4.0090584640
92 1 -1.0950218750 -6.1723234688 -3.9918323040
93 1 0.5548478125 -6.4672188125 -6.4560734775
94 1 0.0233006250 -6.3612708438 -4.0564627840
95 1 1.0874700000 -6.5803894375 -4.0833899920
96 1 -1.6346987500 -4.9689321875 -6.4544426912
97 1 -1.2170881250 -5.6370016875 -4.8629579200
98 1 -0.6348143750 -5.7182528750 -5.6214801432
99 1 -0.5216571875 -4.5866353125 -5.6311604680
100 1 -1.1085803125 -5.0739059375 -4.0713316800
101 1 -0.5884146875 -5.1602015625 -6.4303879778
102 1 -0.0331771875 -5.8156545938 -4.9030832160
103 1 -0.0750887500 -5.2663309375 -4.0742976880
104 1 0.5665921875 -5.8922926875 -5.6474100472
105 1 1.1005446875 -5.9547851250 -4.8060209280
106 1 1.0936512500 -5.4017406250 -4.0289009280
107 1 -1.7384765625 -4.4302228125 -5.6083779000
108 1 -1.1251756250 -4.5192596875 -4.9131598720
109 1 -1.1701509375 -3.9936787500 -4.0680030160
110 1 0.0440078125 -4.6912731250 -4.8298914640
111 1 1.1286693750 -4.2337531250 -4.0308825840
112 1 -0.0119056250 -4.1153956250 -4.0477072320
113 1 0.5838459375 -4.7918796875 -5.6872465136
114 1 1.1542006250 -3.7242031250 -4.9061398880
115 1 1.1282796875 -4.8263871875 -4.8113442000
116 1 -2.1865365625 -3.2371340625 -4.8914652720
117 1 -1.6120028125 -3.3120212500 -5.6573209176
118 1 -1.0719496875 -3.3899587500 -4.7950764880
119 1 -1.1073037500 -2.8141081250 -4.0188242720
120 1 -0.5537996875 -3.4823684375 -5.7025259880
121 1 -0.0136928125 -3.5430387500 -4.8221979760
122 1 0.5358740625 -3.6823453125 -5.6329970616
123 1 1.1232003125 -3.1714650000 -4.0716425280
124 1 1.7088334375 -3.2340971875 -6.4425488696
125 1 1.6650406250 -3.2048706250 -3.1934321680
126 1 1.7291778125 -3.7927612500 -5.6390767304
127 1 -1.7111715625 -6.1141915000 -3.2977087200
128 1 -1.6589265625 -6.6467270156 -2.4287460880
129 1 -0.5309962500 -6.2903033750 -3.2174969840
130 1 0.5599271875 -6.4233789688 -3.1924348640
131 1 1.6324815625 -6.5506898750 -3.2205925120
132 1 -1.7433678125 -5.5810990000 -2.4404417440
133 1 -0.5714834375 -5.1219450000 -3.1762319120
134 1 -0.6080603125 -5.7175675625 -2.4414131440
135 1 0.5127481250 -5.3298634375 -3.2793298320
136 1 0.5631118750 -5.8503031875 -2.3936461680
137 1 1.6811521875 -5.4606385313 -3.2790448880
138 1 1.6678759375 -5.9900625938 -2.4068183520
139 1 -1.6916334375 -3.8290962500 -3.1933803600
140 1 -1.7125153125 -4.4130228125 -2.4366727120
141 1 -0.5972968750 -4.0270306250 -3.2718565280
142 1 -0.5361831250 -4.5544928125 -2.3881415680
143 1 0.5408996875 -4.2494615625 -3.2545915120
144 1 0.5700187500 -4.8028984375 -2.4101599680
145 1 1.6821062500 -4.3494634375 -3.2301510880
146 1 1.6322934375 -4.9183937500 -2.4356754080
147 1 -1.6290684375 -3.2736706250 -2.3898900880
148 1 0.0632100000 -2.9777096875 -4.0209872560
149 1 -0.5576428125 -3.4981440625 -2.4038264400
150 1 0.5959396875 -3.1167206250 -3.1791720160
151 1 0.5363040625 -3.7068150000 -2.4382917120
152 1 2.1884043750 -6.5635925625 -4.0207282160
153 1 1.6303987500 -6.0084719688 -5.6787681344
154 1 -0.5927684375 -2.3795259375 -5.6444427440
155 1 0.0002150000 -2.4374684375 -4.8758322080
156 1 0.5572128125 -2.5613487500 -5.6731379000
157 1 1.1337621875 -2.5913412500 -4.8725164960
158 1 1.6977475000 -2.6485446875 -5.6578765584
159 1 -1.7071806250 -2.7500784375 -3.2906239760
160 1 -0.5346915625 -2.9626462500 -3.2634506800
161 1 0.5416118750 -2.5221246875 -2.4252101920
162 1 1.6856806250 -3.7943065625 -2.4287331360
163 1 -0.5843565625 -2.4019531250 -2.4534585040
164 1 1.7027193750 -2.6432503125 -2.3786477520
165 1 1.6566690625 -4.9213500000 -5.6924156568
166 1 2.1851256250 -6.0164256250 -4.8618829040
167 1 2.2093131250 -4.8937628125 -4.8420274880
168 1 2.1929328125 -3.2282518750 -4.0506084800
169 1 -1.1292740625 -2.2558740625 -4.8204494560
170 1 -1.6399931250 -6.6820571594 -5.6987504800
171 1 -1.7274040625 -3.8859771875 -6.4374108112
172 1 1.6766909375 -4.3291056250 -6.4708947620
173 1 0.6097131250 -3.1422115625 -6.4530443933
174 1 1.6461475000 -6.5944480188 -6.4630169152
175 1 2.2805318750 -5.4646590313 -4.0433683120
176 1 2.2758018750 -2.6811843750 -4.8612612080
177 1 6.6664781250 -5.8964489063 -3.9920654400
178 1 6.7104321875 -5.4006804063 -4.9126676960
179 1 6.0903856250 -5.3922524063 -5.6887204512
180 1 6.6981637500 -4.8475378125 -4.0317762720
181 1 6.6248890625 -4.3104678125 -4.8688769840
182 1 6.6792975000 -2.5606634375 -4.0525512800
183 1 3.3454671875 -6.4063146875 -4.0108069840
184 1 4.4853568750 -6.2644200625 -4.1301337600
185 1 5.5416115625 -6.0992893125 -4.0793101120
186 1 6.1634587500 -6.5467930000 -5.7049713256
187 1 2.7515565625 -4.8376478125 -5.6464606656
188 1 2.7374875000 -6.5455809375 -6.4217405750
189 1 3.3301350000 -5.9072123438 -4.8781376640
190 1 2.7984400000 -5.4141515000 -3.1666344800
191 1 3.9338281250 -5.8571025625 -5.6808249120
192 1 4.4203731250 -5.6594530625 -4.8191154000
193 1 5.0974484375 -4.4794040625 -5.6638202312
194 1 4.4314456250 -5.1095153125 -4.0089030400
195 1 5.0052940625 -5.6496584688 -5.6535363432
196 1 5.5750306250 -5.4772271250 -4.8314845600
197 1 6.1169112500 -5.9350844063 -6.4614537383
198 1 5.6014353125 -4.8717656250 -4.2146973680
199 1 6.6841350000 -6.4350964688 -4.8295547120
200 1 2.2530387500 -4.3492618750 -4.0278259120
201 1 3.3876340625 -4.7895281250 -4.9059974160
202 1 3.3251631250 -5.3191671875 -4.0435496400
203 1 3.4035171875 -4.2539228125 -4.0428761360
204 1 3.9557581250 -4.6736565625 -5.6024394080
205 1 4.6650028125 -4.5595184375 -4.8870356880
206 1 4.4604034375 -4.0340853125 -4.0375399120
207 1 6.0153103125 -4.3114218750 -5.5116717920
208 1 5.6038675000 -3.9280231250 -4.1498078480
209 1 2.3227793750 -3.7913100000 -4.8375460960
210 1 2.8388600000 -2.5899975000 -5.6164703096
211 1 2.8297359375 -3.7286778125 -5.7105173720
212 1 3.3930628125 -3.6766612500 -4.8191672080
213 1 3.3470125000 -3.1141675000 -3.9941118560
214 1 4.4795384375 -3.5075503125 -4.8779304320
215 1 4.5180637500 -2.3805875000 -4.8480113120
216 1 5.0099165625 -3.3359265625 -5.7317003680
217 1 5.5976593750 -3.4196153125 -4.8804560720
218 1 6.2044700000 -3.2284803125 -5.6534340224
219 1 5.6149937500 -2.7800306250 -4.1501705040
220 1 2.7789153125 -6.5909158375 -3.2551484480
221 1 3.9447125000 -6.3969165000 -3.2732553440
222 1 4.9834715625 -6.1448384063 -3.2142460320
223 1 6.0775125000 -5.9823333438 -3.2521047280
224 1 6.1319746875 -6.5713191250 -2.4732750640
225 1 2.7916540625 -6.0347449688 -2.4692988000
226 1 3.9055825000 -5.3059581250 -3.2198801520
227 1 3.8882212500 -5.8626670313 -2.4063779840
228 1 5.0732475000 -5.1078759375 -3.3043660480
229 1 5.0019615625 -5.6091780000 -2.3565257360
230 1 6.0974806250 -4.8763881250 -3.2224057920
231 1 6.1837359375 -5.4349702188 -2.4305852720
232 1 2.8223050000 -4.2681262500 -3.2459007200
233 1 2.7624812500 -4.8245193750 -2.4353645600
234 1 3.9329278125 -4.1297871875 -3.1744056800
235 1 3.9388671875 -4.7322843750 -2.4525518640
236 1 5.0521775000 -3.9893384375 -3.2461209040
237 1 5.0212846875 -4.5715315625 -2.4373332640
238 1 6.1523190625 -3.7907053125 -3.2994442880
239 1 6.1231328125 -4.3131821875 -2.4028938960
240 1 2.7576571875 -3.1572481250 -3.2504727760
241 1 2.7902834375 -3.7139503125 -2.4148874480
242 1 6.1297843750 -2.7368290625 -3.2471959200
243 1 3.8836928125 -3.5395450000 -2.4497153760
244 1 4.5162362500 -2.9430946875 -4.0473316240
245 1 5.0490196875 -3.4433459375 -2.4387709360
246 1 5.0897756250 -2.8953512500 -3.2512628480
247 1 6.1826206250 -3.2759415625 -2.3941512960
248 1 3.4316418750 -2.5874981250 -4.8307592480
249 1 3.8857890625 -3.5545143750 -5.6892100368
250 1 3.9269884375 -2.4130928125 -5.6652073904
251 1 2.8485350000 -2.6138893750 -2.4105485280
252 1 3.9440137500 -2.9896959375 -3.2586843440
253 1 5.0271031250 -2.2938753125 -2.4624471920
254 1 3.9516865625 -2.4308975000 -2.4462053840
255 1 3.8755093750 -5.2589134375 -6.3947803394
256 1 2.7664184375 -5.9716948750 -5.6353789344
257 1 2.8177362500 -3.1297281250 -6.4633032321
258 1 4.0219781250 -4.1434128125 -6.4211064450
259 1 5.0471518750 -2.4441603125 -5.8096442088
260 1 5.0104406250 -6.6991243969 -5.6314350504
261 1 5.6230965625 -6.6418443656 -4.8925273360
262 1 2.8373550000 -5.4193518125 -6.4480045110
263 1 4.9734875000 -5.0483746875 -6.4680568104
264 1 6.0250121875 -2.6792762500 -6.4663093136
265 1 -6.6597483563 -1.9942459375 -4.8654576560
266 1 -6.1131353125 -1.9593890625 -5.6800439064
267 1 -5.5763085313 -1.8696937500 -4.8141288800
268 1 -5.0404465625 -1.2148037500 -6.4382510074
269 1 -5.5843092188 -1.2727059375 -4.0590920400
270 1 -5.0422337500 -1.8223131250 -5.6907448488
271 1 -4.4965906250 -1.8216278125 -4.8814274720
272 1 -4.4777378125 -1.2784303125 -4.0452593040
273 1 -3.8966734375 -1.8461109375 -5.6254071896
274 1 -3.3124378125 -1.9392731250 -4.8828651440
275 1 -3.3795178125 -1.4000262500 -4.0405706800
276 1 -2.7327440625 -2.0208253125 -5.6607868728
277 1 -6.6665876406 -0.3180656250 -4.0131383440
278 1 -6.1670626875 -0.8297656250 -5.6049261920
279 1 -5.5691785938 -0.7346684375 -4.9052980080
280 1 -5.5852444688 -0.1873725000 -4.0852939360
281 1 -4.9607353125 -0.6722512500 -5.6159483440
282 1 -4.3896818750 -0.7093790625 -4.8421829120
283 1 -4.5079990625 -0.1488203125 -4.0403116400
284 1 -3.8426412500 -0.7374231250 -5.6885663224
285 1 -3.3209168750 -0.8086418750 -4.7855956240
286 1 -3.3049800000 -0.2170962500 -4.0156769360
287 1 -2.8023637500 -0.9227531250 -5.6962870096
288 1 -6.6739832375 0.2414046875 -4.8657944080
289 1 -6.1669914688 0.8955959375 -6.4404572511
290 1 -6.1177484063 0.2926150000 -5.7040310104
291 1 -5.5960011875 0.4270840625 -4.8273399200
292 1 -5.5651097188 0.9571800000 -3.9920265840
293 1 -5.0315240625 0.4338834375 -5.6413031792
294 1 -4.4684793750 0.4263450000 -4.8125875920
295 1 -4.4030521875 1.0121796875 -4.0600634400
296 1 -3.9341775000 0.3714259375 -5.6557705632
297 1 -3.3586225000 0.3133490625 -4.8529460240
298 1 -2.7798290625 0.7545425000 -6.4218589562
299 1 -3.3108253125 0.8849131250 -4.0549474000
300 1 -2.7975128125 0.1877487500 -5.6352714328
301 1 -6.6673922781 1.2989493750 -4.8836034080
302 1 -6.6857093375 1.8535284375 -4.0870036000
303 1 -6.1292105938 1.4733546875 -5.6960603496
304 1 -5.5832180938 1.5088700000 -4.8299432720
305 1 -5.0285409375 2.1213915625 -6.4477002686
306 1 -5.5947017813 2.0691062500 -4.0029580720
307 1 -5.0356896875 1.5206681250 -5.6923211072
308 1 -4.5115196875 1.5830450000 -4.8375979040
309 1 -4.4355709375 2.1264843750 -4.0217643760
310 1 -3.9320006250 1.4657490625 -5.6173821304
311 1 -3.3313309375 1.4399625000 -4.8896649440
312 1 -2.7561387500 1.3435484375 -5.6641673448
313 1 -6.1332431875 -1.3793190625 -3.2295293920
314 1 -6.1129001563 -1.9592412500 -2.4134109200
315 1 -5.0243618750 -1.2569437500 -3.2283119040
316 1 -5.0585468750 -1.8189134375 -2.4142268960
317 1 -3.9101243750 -1.2553043750 -3.2116297280
318 1 -3.9040237500 -1.8081231250 -2.4248993440
319 1 -2.7942340625 -1.4629675000 -3.2830082000
320 1 -2.7301103125 -1.9778656250 -2.3928820000
321 1 -6.0872748438 -0.2739100000 -3.1897797040
322 1 -6.1634036563 -0.8484437500 -2.3884265120
323 1 -5.0385653125 -0.1365384375 -3.1939113920
324 1 -4.9864278125 -0.7105078125 -2.4054713440
325 1 -3.9124087500 -0.1742575000 -3.2963099040
326 1 -3.8741387500 -0.6867100000 -2.4015727920
327 1 -2.7378771875 -0.3685503125 -3.2435305040
328 1 -2.7955240625 -0.9130781250 -2.4265183440
329 1 -6.1391140313 0.8514671875 -3.2462115680
330 1 -6.1800097188 0.3101912500 -2.4229824480
331 1 -4.9661775000 0.9443740625 -3.2605753360
332 1 -5.0081428125 0.4320156250 -2.3858620160
333 1 -3.8608759375 0.9369834375 -3.2103863360
334 1 -3.8972915625 0.3517131250 -2.4292771200
335 1 -6.1812043125 2.0246415625 -3.2173286080
336 1 -6.1038352188 1.4297096875 -2.4637812480
337 1 -5.0096612500 2.0732987500 -3.2430901360
338 1 -5.0622959375 1.5153603125 -2.4364654800
339 1 -2.7953896875 1.8992965625 -3.1991051440
340 1 -3.9513640625 1.4951100000 -2.4203790960
341 1 -2.7598475000 0.7918450000 -3.1910101440
342 1 -2.7657196875 1.3436828125 -2.3789845040
343 1 -3.3362490625 1.9744659375 -4.0511524640
344 1 -3.8684143750 2.0724790625 -3.2066820640
345 1 -2.8113534375 0.1987943750 -2.4471767840
346 1 -2.2604428125 -0.9597600000 -4.8319378800
347 1 -6.6890888688 -1.4267803125 -4.0844391040
348 1 -6.1205823750 -1.3476200000 -6.4535145509
349 1 -3.9567525000 -1.3175603125 -6.4667094527
350 1 -6.1026916875 -0.2832625000 -6.4737504189
351 1 -5.0299653125 -0.1346706250 -6.4652408384
352 1 -3.8514428125 0.9220275000 -6.4752718619
353 1 -6.1339567188 2.0624278125 -6.4693132969
354 1 -3.9069396875 2.0110025000 -6.4505670642
355 1 -2.7824896875 1.9122637500 -6.4384403657
356 1 -1.6788006250 -2.2077678125 -5.6843051144
357 1 -2.2093265625 0.1439290625 -4.8753400320
358 1 1.6960409375 -2.1103459375 -3.2309023040
359 1 -1.6674190625 0.6089068750 -3.2053480080
360 1 -2.1993828125 -2.1008590625 -4.7923047600
361 1 -2.1931612500 -1.5187196875 -4.0257017840
362 1 -1.0535940625 -1.6788140625 -4.0347940880
363 1 -0.5200850000 -1.8062015625 -3.1835886480
364 1 0.0154665625 -1.8985978125 -4.0356877760
365 1 1.7212228125 -2.0998512500 -6.4559023816
366 1 1.1356434375 -2.0688912500 -4.0217125680
367 1 -1.6299956250 -0.5478200000 -6.4389642741
368 1 -2.1580221875 -0.4012303125 -4.0285123680
369 1 -1.7087125000 -1.0973062500 -5.6340448784
370 1 -1.1160112500 -1.1385862500 -4.8882143200
371 1 -0.5274353125 -0.6769140625 -6.4265158478
372 1 -0.5289671875 -0.6748446875 -3.1953490640
373 1 -0.5344900000 -1.2471478125 -5.6416451120
374 1 0.0441018750 -1.3501328125 -4.8655224160
375 1 0.6087725000 -1.4043128125 -5.6660065288
376 1 0.0117712500 -0.7864028125 -4.0541443760
377 1 0.5721150000 -1.9823806250 -6.4282711029
378 1 1.1678396875 -1.5114634375 -4.8516508240
379 1 1.1064034375 -0.9525440625 -4.0366332720
380 1 1.7331821875 -1.5246725000 -5.6709580784
381 1 -1.6656990625 0.6242256250 -6.4309094253
382 1 -2.2292006250 0.6895587500 -4.0364908000
383 1 -1.6450993750 0.0431209375 -5.6727791296
384 1 -1.0833312500 -0.6024837500 -4.0401821200
385 1 -0.5397171875 0.4707962500 -6.4735884153
386 1 -1.0912190625 -0.0413337500 -4.8571165680
387 1 -0.5218587500 -0.0914825000 -5.6667305456
388 1 0.0298178125 -0.2261531250 -4.8578677840
389 1 -0.0130746875 0.3243140625 -4.0351049360
390 1 0.6182190625 -0.2776590625 -5.6186527216
391 1 1.1783343750 -0.3896068750 -4.8333366960
392 1 1.7413656250 -0.4200562500 -5.6463648208
393 1 1.1434371875 0.1706159375 -4.0482123600
394 1 -2.1943437500 1.2343284375 -4.8621419440
395 1 -2.2387950000 1.8049115625 -4.0465933600
396 1 -1.6197159375 1.1939084375 -5.6545414184
397 1 -1.1135790625 0.5190906250 -4.0282662800
398 1 -1.0600978125 1.0580418750 -4.8503426720
399 1 -0.4915571875 1.0130665625 -5.6407604904
400 1 0.0651584375 0.9010650000 -4.8178461040
401 1 0.0039103125 1.4551065625 -3.9990336160
402 1 0.5963562500 0.8074996875 -5.6894975712
403 1 1.1232406250 0.7724546875 -4.7904785280
404 1 1.6550565625 0.6748715625 -5.6564673808
405 1 1.0952906250 1.8861412500 -4.8744204400
406 1 -1.6387837500 -1.6793112500 -3.2423259680
407 1 -0.5546193750 -1.2362634375 -2.3960293360
408 1 0.5793443750 -1.9588515625 -3.2125493200
409 1 1.7427228125 -1.5444928125 -2.4382528560
410 1 -1.7058771875 -1.1101793750 -2.4432134720
411 1 -0.4901596875 -0.1137484375 -2.3815360480
412 1 -0.5607603125 0.4363693750 -3.2039103360
413 1 0.5541221875 -0.8417384375 -3.2057883760
414 1 1.6684134375 -0.9693946875 -3.2233383360
415 1 -1.5977590625 1.1690625000 -2.4034249280
416 1 -1.6105650000 -0.5317084375 -3.1835238880
417 1 -0.5717656250 1.5900325000 -3.2505763920
418 1 -1.6645568750 0.0532662500 -2.4026478080
419 1 -0.4732821875 1.0198121875 -2.4568389760
420 1 0.5714700000 0.2682393750 -3.2500842160
421 1 1.7006365625 0.1720134375 -3.2489962480
422 1 1.7606484375 -0.4087284375 -2.4524741520
423 1 -1.7015771875 1.7365146875 -3.1973954800
424 1 0.6214978125 1.3741993750 -3.2932273280
425 1 1.2067681250 1.3506031250 -4.0289527360
426 1 1.6778868750 0.6984275000 -2.3961459040
427 1 1.7648140625 1.2514209375 -3.2323917840
428 1 -1.0679856250 2.1898959375 -4.8219907440
429 1 -0.5367206250 2.1197521875 -5.6879018848
430 1 -0.0043268750 2.0185678125 -4.7992470320
431 1 0.5215631250 1.9277168750 -5.6761324024
432 1 1.6631996875 1.7857765625 -5.6559648432
433 1 1.7622206250 1.2354437500 -6.4629306549
434 1 -0.5400396875 2.1516528125 -2.4313105840
435 1 0.5274621875 1.9031800000 -2.4239279440
436 1 -1.6541965625 -2.2333796875 -2.4044999440
437 1 0.6139728125 -1.4074706250 -2.3940217760
438 1 0.6489506250 -0.2847675000 -2.4129187440
439 1 0.6006965625 0.8342537500 -2.4403122240
440 1 -1.1583662500 1.6195412500 -4.0326570080
441 1 1.6656587500 1.7996037500 -2.4098491200
442 1 -0.5244387500 -1.8140087500 -6.4414798115
443 1 2.2391309375 0.6795343750 -4.8819326000
444 1 2.2347771875 1.8386128125 -4.8596163040
445 1 -1.6783571875 1.7569800000 -6.4702675614
446 1 0.5690512500 -0.8267690625 -6.4521134035
447 1 2.3024350000 -0.4258478125 -4.8382196000
448 1 2.2588706250 -2.1058040625 -4.0572010480
449 1 2.2635468750 -1.5283275000 -4.8187786480
450 1 6.6774565625 -0.8522868750 -4.8599919120
451 1 6.7049362500 0.7615837500 -3.9920395360
452 1 3.3607859375 -2.0008571875 -4.0889464000
453 1 4.4781678125 -1.8259412500 -3.9829601840
454 1 5.5580321875 -2.1853809375 -4.8705736960
455 1 5.6719418750 -1.6345912500 -4.0152624720
456 1 6.1791000000 -2.1588150000 -5.5829336960
457 1 2.8448262500 -0.9715043750 -3.2829434400
458 1 2.8254628125 -1.5124578125 -5.6356742400
459 1 3.3769243750 -1.3973790625 -4.8140770720
460 1 3.4280406250 -0.8305046875 -4.0441713360
461 1 3.9392434375 -1.3251390625 -5.6156051160
462 1 4.5561993750 -1.3302587500 -4.8886028800
463 1 4.5183190625 -0.7480521875 -4.0906690160
464 1 5.0851396875 -1.2024143750 -5.7249666232
465 1 5.6162568750 -1.0918909375 -4.8572331360
466 1 6.1794225000 -0.4314915625 -6.4286433434
467 1 5.5843965625 -0.5425525000 -3.9822348720
468 1 6.1707284375 -1.0803884375 -5.7279015464
469 1 2.2401925000 -0.9595584375 -4.0016758240
470 1 2.2774412500 0.1555525000 -4.0321648320
471 1 2.8410906250 -0.4020634375 -5.7292653920
472 1 3.3505465625 -0.2634287500 -4.8401753520
473 1 3.3847718750 0.2859500000 -3.9889828640
474 1 3.9446856250 -0.2688978125 -5.6633941104
475 1 4.4859615625 -0.1654156250 -4.8337252560
476 1 4.5447775000 0.4313571875 -4.0869129360
477 1 6.2039862500 0.1520587500 -5.7033834104
478 1 5.6718343750 -0.0424759375 -4.9020859120
479 1 5.6342900000 0.5232965625 -4.1039059600
480 1 6.1722871875 0.7457006250 -6.4658114905
481 1 2.8187978125 0.8043150000 -5.6231276376
482 1 3.4401478125 0.7717828125 -4.9129785440
483 1 3.3639437500 1.3298556250 -4.0643116960
484 1 3.9928321875 0.8967381250 -5.7093465112
485 1 4.5081065625 1.0231178125 -4.8368466880
486 1 5.0716618750 1.0136981250 -5.6768395816
487 1 4.4858137500 1.5687206250 -3.9897858880
488 1 5.0464396875 -0.0452709375 -5.6068120032
489 1 5.6068506250 1.1388012500 -4.8170560320
490 1 5.6500656250 1.7365550000 -4.0843872960
491 1 6.1456540625 1.2846384375 -5.6169624856
492 1 2.8036000000 -2.0436018750 -3.2125363680
493 1 3.8869984375 -1.8689412500 -3.2383885600
494 1 5.0918450000 -1.7551525000 -3.2874895920
495 1 6.2327962500 -1.5998418750 -3.2005298640
496 1 6.1917581250 -2.1769153125 -2.4331886240
497 1 2.8520690625 -0.4296103125 -2.4348723840
498 1 2.8331490625 -1.4861471875 -2.3803185600
499 1 3.9731059375 -0.7605087500 -3.2049335440
500 1 3.9651912500 -1.3214706250 -2.4123877120
501 1 5.0316987500 -0.5817228125 -3.1814386160
502 1 5.0608984375 -1.1949834375 -2.4574736240
503 1 6.2024409375 -0.4517015625 -3.2544231360
504 1 6.1327271875 -1.0160362500 -2.4599086000
505 1 2.8235009375 1.3376762500 -3.1830058080
506 1 2.8264840625 0.1572725000 -3.2013328880
507 1 4.0088228125 0.3070334375 -3.2747966320
508 1 3.9223659375 -0.1906512500 -2.3800983760
509 1 5.0829225000 0.5293031250 -3.2338424080
510 1 5.1062903125 -0.0050256250 -2.3768992320
511 1 6.1309534375 0.7289843750 -3.2082363040
512 1 6.1996862500 0.1242296875 -2.4791552720
513 1 2.3131043750 1.2481153125 -4.0901638880
514 1 3.9165743750 1.4604412500 -3.2268871840
515 1 3.9493215625 0.8705753125 -2.4671099120
516 1 5.1114503125 1.5931634375 -3.2841091200
517 1 5.0118112500 1.0869325000 -2.3744254000
518 1 6.1935856250 1.8281987500 -3.2297366240
519 1 6.2076009375 1.2768581250 -2.3847610960
520 1 2.8002540625 1.9104496875 -5.6337741816
521 1 3.3933584375 1.8923762500 -4.8482574000
522 1 3.9200681250 2.0766312500 -5.6528757912
523 1 4.5361909375 2.0781362500 -4.9016325920
524 1 5.0850053125 2.1527009375 -5.7006349960
525 1 3.9753500000 2.0368562500 -2.4527850000
526 1 2.8418565625 0.7301668750 -2.4503759280
527 1 2.8058171875 1.9041609375 -2.3752025200
528 1 2.8437646875 1.3416671875 -6.4650988067
529 1 5.0622825000 2.1601587500 -2.4852945200
530 1 3.9252953125 -1.8442565625 -6.4751053769
531 1 5.0605087500 -1.8267743750 -6.4407842891
532 1 2.8181528125 0.2306546875 -6.4035943049
533 1 3.9469296875 0.3023303125 -6.4567803977
534 1 3.9041715625 1.4949621875 -6.4309901162
535 1 5.0670393750 -0.5968265625 -6.4576012954
536 1 -3.9271093750 3.1796618750 -3.2456675840
537 1 -6.6901568813 3.0378962500 -4.0727045920
538 1 -6.1848593125 2.5891240625 -5.6119863272
539 1 -5.5751784375 2.5897018750 -4.8899110320
540 1 -5.5783604375 3.1453425000 -4.0871719760
541 1 -5.0104137500 2.6799212500 -5.6578998720
542 1 -4.4397231250 2.6702059375 -4.8606136080
543 1 -3.9403856250 3.1995493750 -6.4270007707
544 1 -4.5117481250 3.2251881250 -4.0155733200
545 1 -3.8822550000 2.5935450000 -5.6899962232
546 1 -3.3492028125 2.5504106250 -4.8343340000
547 1 -2.7781896875 2.4891893750 -5.6531710968
548 1 -6.1533040313 3.6520034375 -5.6772929016
549 1 -5.6266360000 3.7561306250 -4.8259152000
550 1 -5.6043109375 4.3155875000 -4.0539889520
551 1 -5.0684637500 3.8171100000 -5.6436060448
552 1 -4.4839996875 3.7565606250 -4.8698095280
553 1 -4.4812853125 4.3271437500 -4.0658011760
554 1 -3.9095062500 3.7613578125 -5.6503941880
555 1 -3.3466362500 3.6609259375 -4.8620512800
556 1 -3.4112034375 4.2201543750 -4.0354416880
557 1 -2.7649940625 3.5818462500 -5.6454905608
558 1 -6.2057720938 5.4233212500 -6.4357836514
559 1 -6.1380202188 4.8043228125 -5.7002632736
560 1 -5.6219758750 4.8876487500 -4.8336345920
561 1 -5.6394002813 5.4399703125 -4.0017923920
562 1 -5.0450421875 4.8931043750 -5.6725835544
563 1 -4.5100953125 4.9089203125 -4.8402789680
564 1 -3.9701093750 5.9509446875 -5.7083194176
565 1 -4.4965771875 5.4615375000 -4.0431610800
566 1 -3.9291921875 4.8644825000 -5.6241171704
567 1 -3.3519171875 4.7974965625 -4.8337900160
568 1 -2.7691059375 5.2764090625 -6.4625457214
569 1 -3.3542015625 5.3487431250 -4.0350272240
570 1 -2.8325309375 4.6993759375 -5.7142708616
571 1 -6.7173552950 6.3908884375 -4.0756317440
572 1 -6.2337220938 5.9593431250 -5.6180336160
573 1 -5.6141686875 5.9476390625 -4.8861679040
574 1 -5.6243543125 6.5139221875 -4.0760721120
575 1 -5.0510084375 6.0183203125 -5.6613697128
576 1 -4.5045053125 6.0447921875 -4.8257209200
577 1 -5.0608581250 6.5833806250 -6.4698285015
578 1 -4.5023553125 6.6005537500 -3.9986450560
579 1 -3.4468396875 5.9329115625 -4.8281299920
580 1 -2.8048228125 6.4067581250 -6.4316781265
581 1 -3.3478725000 6.5010759375 -4.0587293840
582 1 -2.8801400000 5.8312703125 -5.6409223904
583 1 -6.1386222188 3.1238156250 -3.2356038800
584 1 -6.1457346875 2.5648425000 -2.4025571440
585 1 -5.0698343750 3.2524528125 -3.1912044240
586 1 -5.0153990625 2.6440431250 -2.4701795360
587 1 -3.9102721875 2.6294231250 -2.3926488640
588 1 -3.3618206250 3.1234528125 -4.0360504320
589 1 -2.8048900000 3.0261921875 -3.2102956720
590 1 -6.1529318125 4.1861709375 -3.2717011040
591 1 -6.2028534688 3.6695528125 -2.3824426880
592 1 -5.0422068750 4.3446796875 -3.2405644960
593 1 -5.0194975000 3.8059300000 -2.3915608960
594 1 -3.9591578125 4.3398959375 -3.1929529440
595 1 -3.8853456250 3.7303171875 -2.4512696160
596 1 -2.8185021875 4.1736203125 -3.2722321360
597 1 -2.7836050000 3.6202371875 -2.4547407520
598 1 -6.2154766563 5.3372675000 -3.2167198640
599 1 -6.1471980313 4.7403334375 -2.4542226720
600 1 -5.0454050000 5.4393790625 -3.2417301760
601 1 -5.0798184375 4.9099550000 -2.4044869920
602 1 -3.9189662500 5.4591321875 -3.2542288560
603 1 -3.9136181250 4.9043918750 -2.4396905280
604 1 -2.7729356250 5.2535518750 -3.2595132720
605 1 -2.8234203125 4.7147484375 -2.4104060560
606 1 -6.1800809375 6.4751146875 -3.2167069120
607 1 -6.1658627188 5.9010646875 -2.4387320800
608 1 -5.0852203125 6.6071112500 -3.2326508240
609 1 -5.0495571875 6.0275653125 -2.4647526480
610 1 -3.9125565625 6.5457556250 -3.2554074880
611 1 -3.9821762500 6.0057159375 -2.3940865360
612 1 -2.8305690625 6.3586653125 -3.1657019360
613 1 -2.8650362500 5.7822906250 -2.3838156000
614 1 -2.2685187500 2.8891431250 -4.0271394560
615 1 -2.3023140625 4.5976003125 -4.8223793040
616 1 -2.2804109375 5.7343053125 -4.9141830800
617 1 -2.7510728125 2.4700409375 -2.4075566160
618 1 -2.3126206250 6.2885215625 -4.0804110320
619 1 -6.7040306969 4.6934768750 -4.9136131920
620 1 -5.0618121875 3.2464193750 -6.4447893066
621 1 -6.2206245625 4.2368975000 -6.4587588157
622 1 -3.9109440625 6.5497600000 -6.4318228003
623 1 -5.1002703125 5.4703390625 -6.4699873837
624 1 -1.1322571875 6.6990371875 -4.7844947040
625 1 -2.2232209375 3.4821803125 -4.8030290160
626 1 -2.2075528125 5.1959453125 -4.0722901280
627 1 -0.6119168750 6.6001909375 -5.7301163384
628 1 -0.0991956250 6.5083725000 -4.8318601680
629 1 1.0709553125 6.3204087500 -4.9107378480
630 1 0.4730403125 6.4362265625 -5.6205722080
631 1 1.6772150000 6.3156787500 -5.6099088264
632 1 -0.6157331250 6.5746596875 -2.4428637680
633 1 0.5003587500 6.4336062500 -2.4264147280
634 1 1.6778600000 6.3164581250 -2.4317639040