ITEM: TIMESTEP
171000
ITEM: NUMBER OF ATOMS
2304
ITEM: BOX BOUNDS pp pp pp
-6.7187500000 6.7187500000
-6.7187500000 6.7187500000
-6.4760000000 6.4760000000
ITEM: ATOMS id type x y z
1 1 -5.5801368750 -6.3166664063 -4.0387444480
2 1 -4.4391856250 -5.5742297500 -4.9092872240
3 1 -3.9032712500 -6.6503864500 -5.6411373936
4 1 -4.4717178125 -6.0857241563 -3.9894232320
5 1 -3.9374293750 -6.0772356875 -6.4430089246
6 1 -3.3278909375 -5.9131194688 -4.0644412160
7 1 -3.3608934375 -6.4917234375 -4.8225735840
8 1 -6.7020290469 -5.3286943750 -4.0084108640
9 1 -6.1729536875 -5.8299520938 -5.6694349232
10 1 -5.6079363750 -5.7596860625 -4.8515601600
11 1 -5.6054988125 -4.5963775000 -4.8099453840
12 1 -5.0581571875 -5.6102301563 -5.6401064144
13 1 -4.4504596875 -5.0282184375 -4.0481216960
14 1 -3.9150425000 -4.9520278125 -3.1880959440
15 1 -3.3585015625 -5.3349428125 -4.8505499040
16 1 -2.7633681250 -5.3461900000 -5.6514394144
17 1 -6.1822497500 -4.1254468750 -6.4475048229
18 1 -4.5039678125 -4.4566140625 -4.8319119760
19 1 -5.5912886563 -4.0465418750 -3.9893066640
20 1 -3.9533662500 -4.3289712500 -5.6261363872
21 1 -3.8787612500 -5.4867234063 -5.7144780936
22 1 -4.3999078125 -3.8906668750 -4.0344184800
23 1 -3.3357653125 -4.2768203125 -4.8987831520
24 1 -3.3638496875 -4.8013800000 -3.9976348000
25 1 -2.7748975000 -4.2059509375 -5.6726806944
26 1 -3.8949803125 -3.7994800000 -3.1860106720
27 1 -6.0953413750 -3.5614884375 -5.6537681840
28 1 -5.5118810938 -3.5151290625 -4.8575698880
29 1 -6.1047086563 -4.7128134375 -5.7042667368
30 1 -5.0712050000 -2.8192950000 -6.4516545142
31 1 -5.5963626563 -2.9576340625 -4.0414514160
32 1 -4.9712971875 -3.4075887500 -5.7064504440
33 1 -4.4650393750 -3.3049396875 -4.7970581440
34 1 -4.4615993750 -2.7567568750 -3.9694771520
35 1 -3.9151231250 -3.2621412500 -5.6630729008
36 1 -3.3716165625 -3.1478015625 -4.8245293360
37 1 -3.2810612500 -2.5818006250 -3.9320588240
38 1 -2.8214046875 -3.0387696875 -5.6419481888
39 1 -6.6805027094 -6.4827377813 -4.0602318160
40 1 -6.1470435000 -6.3451377813 -3.2136761440
41 1 -5.0248053125 -6.2302982188 -3.2072519520
42 1 -3.8613328125 -6.1079591875 -3.2597723120
43 1 -3.9324843750 -6.6273029750 -2.3493114720
44 1 -2.7700600000 -4.7688343750 -3.2423130160
45 1 -2.7626021875 -5.8376880625 -3.2128990240
46 1 -6.0984414063 -5.2652290625 -3.2674528480
47 1 -6.1558235625 -5.7944340938 -2.3946434720
48 1 -5.5313265000 -5.1977862500 -4.0718627120
49 1 -4.9936437500 -5.6487232188 -2.4548443680
50 1 -5.0135581250 -5.0483612500 -3.1938336800
51 1 -2.7598878125 -4.1953621875 -2.4606986720
52 1 -2.2416571875 -4.5801853125 -4.0753338480
53 1 -6.1782225313 -4.1519187500 -3.2372746880
54 1 -6.1528390938 -4.7162265625 -2.4413224800
55 1 -4.9889406250 -3.9766400000 -3.2659115600
56 1 -5.0525940625 -4.4933521875 -2.3762127760
57 1 -3.8800243750 -4.3671203125 -2.4239797520
58 1 -3.3281328125 -3.7382990625 -4.0642728400
59 1 -6.1497242813 -3.0142059375 -3.2055163840
60 1 -6.0861259375 -3.5791856250 -2.4374627840
61 1 -5.0241200000 -2.8423940625 -3.2328451040
62 1 -5.0108975000 -3.4186343750 -2.4343024960
63 1 -3.8186687500 -2.6971884375 -3.2545138000
64 1 -3.9410843750 -3.2267065625 -2.3668484800
65 1 -2.8069325000 -3.5676965625 -3.1761671520
66 1 -2.8261481250 -5.2961353125 -2.3542720880
67 1 -6.6908326531 -2.5223262500 -4.8372352480
68 1 -6.1139550000 -2.4745828125 -5.6249512792
69 1 -5.5307688438 -2.3966990625 -4.8556659440
70 1 -4.9578193750 -2.2625659375 -5.6318585808
71 1 -6.1346097813 -2.4567512500 -2.3836860800
72 1 -4.9382678125 -2.2905293750 -2.4046942240
73 1 -2.8098081250 -6.3849423438 -5.6317277656
74 1 -2.7796140625 -6.4073560938 -2.3930633280
75 1 -3.8950878125 -5.5582727188 -2.4456743520
76 1 -2.7829600000 -2.9643796875 -2.5482023840
77 1 -5.0468696875 -4.5364731250 -5.6763072544
78 1 -3.8917015625 -4.8804328125 -6.4308844279
79 1 -2.7825031250 -3.5995971875 -6.4234504980
80 1 -2.3482165625 -2.4382746875 -3.8996658720
81 1 -2.2505796875 -3.5027800000 -3.9983601120
82 1 -6.6703966344 -4.8225440625 -4.8861679040
83 1 -6.6560152844 -3.6952587500 -4.8642272160
84 1 -6.6736700094 -3.1245815625 -4.0933759840
85 1 -4.4987809375 -6.6185390375 -4.8442811360
86 1 -2.7843709375 -4.7644806250 -6.4474010774
87 1 -5.0204918750 -6.1750284375 -6.4283655230
88 1 -2.2365240625 -5.7862385625 -4.0897235200
89 1 -1.6900075000 -4.5860575000 -3.2512887520
90 1 -1.0933153125 -6.2627417188 -4.8558990800
91 1 -2.2121081250 -6.3877655625 -4.8644992080
92 1 -1.6631056250 -6.2525910313 -5.6487933208
93 1 -2.2298993750 -5.1797665625 -4.8007235600
94 1 -1.0643709375 -5.1602956250 -4.8650302400
95 1 -1.1589440625 -5.7148894688 -4.0312322880
96 1 0.0398421875 -6.3580915313 -4.8369632560
97 1 0.0097556250 -5.2944959375 -4.8354996800
98 1 0.5404562500 -5.9170499375 -6.4644960466
99 1 0.0009406250 -5.8357167813 -3.9818074560
100 1 1.1076934375 -6.5650975625 -4.8286221680
101 1 0.5762000000 -6.5003153750 -5.6894107928
102 1 1.1853218750 -6.0034584375 -4.0297946160
103 1 1.6746484375 -6.6355712031 -5.6618567080
104 1 -1.6776315625 -5.1576618750 -5.6137970168
105 1 -0.5719537500 -4.6037143750 -6.4573201075
106 1 -0.5273278125 -4.0519437500 -5.6526815112
107 1 -1.1102868750 -4.6241796875 -4.0247562880
108 1 -0.5257690625 -5.1862031250 -5.6962105928
109 1 0.0458218750 -4.7356437500 -4.0222824560
110 1 0.5809031250 -5.3599096875 -5.6672913672
111 1 1.1115768750 -5.4299553438 -4.8164084320
112 1 1.7442143750 -5.0080487500 -6.4562230731
113 1 1.1558803125 -4.8526575000 -4.0683656720
114 1 -2.2130218750 -4.0124240625 -4.8784226080
115 1 -1.6824959375 -3.5070800000 -6.4548252933
116 1 -1.6314468750 -4.0715893750 -5.6599048416
117 1 -1.0973465625 -4.0528709375 -4.8233636560
118 1 -1.1086743750 -3.4821534375 -4.0556856640
119 1 0.0119056250 -4.1686618750 -4.8125098800
120 1 1.1346625000 -3.7531071875 -4.0023752320
121 1 0.0169984375 -3.5697928125 -4.0736371360
122 1 0.5427406250 -4.2905131250 -5.6487169040
123 1 1.7147862500 -3.8027721875 -6.3861673889
124 1 1.0842584375 -3.2253762500 -4.9051814400
125 1 1.1402793750 -4.2772906250 -4.8621548960
126 1 -2.2388084375 -2.9511975000 -4.8557307040
127 1 -1.6825765625 -2.9247121875 -5.6770714224
128 1 -1.1707153125 -2.8767537500 -4.7915924000
129 1 -0.4936131250 -2.4322681250 -6.4235010108
130 1 -1.1455737500 -2.3214221875 -4.0276316320
131 1 -0.6207050000 -3.0054715625 -5.6247569992
132 1 0.5897046875 -2.5272175000 -6.4022865414
133 1 -0.0307046875 -2.9893196875 -4.8513658800
134 1 0.5289940625 -3.1406528125 -5.6848853640
135 1 1.1196662500 -2.6959253125 -4.0434071680
136 1 1.6910825000 -2.6746940625 -3.2092206560
137 1 1.7211018750 -3.2243953125 -5.6344593424
138 1 -1.7181321875 -5.6743485313 -3.1997916000
139 1 -0.5950528125 -5.7961500625 -3.2487372080
140 1 -0.5033015625 -6.3242733750 -2.3970007360
141 1 0.6093234375 -5.9243196250 -3.2739547520
142 1 0.5975387500 -6.4894135313 -2.4604655360
143 1 1.7564693750 -6.0855615625 -3.2077311760
144 1 1.6315543750 -6.6767942281 -2.4623176720
145 1 -1.6210462500 -5.1216762500 -2.4020779200
146 1 -0.5284431250 -4.6328200000 -3.2501878320
147 1 -0.5341675000 -5.2154565625 -2.4704774320
148 1 0.6232043750 -4.7965156250 -3.2106065200
149 1 0.5087975000 -5.3808318750 -2.4427860560
150 1 1.6891206250 -4.9915743750 -3.2105158560
151 1 1.6644359375 -5.5302850938 -2.3845150080
152 1 -1.6275365625 -3.4735131250 -3.2409789600
153 1 -1.6731165625 -4.0191025000 -2.4326446400
154 1 -0.5248956250 -3.5357153125 -3.2275865920
155 1 -0.5843028125 -4.1032750000 -2.4135145360
156 1 0.5553315625 -3.7062237500 -3.2177301200
157 1 0.5746143750 -4.2493271875 -2.3823261200
158 1 1.7032703125 -3.8262609375 -3.2080549760
159 1 1.7233862500 -4.4097306250 -2.4417628480
160 1 -1.7040093750 -2.9157225000 -2.4088906720
161 1 -0.0079281250 -2.4692615625 -3.9838538720
162 1 -0.5677075000 -2.9830712500 -2.4009770000
163 1 0.5736200000 -2.5550868750 -3.2159945520
164 1 0.5637031250 -3.1306687500 -2.4350537120
165 1 2.2146478125 -6.7053201325 -4.8279357120
166 1 1.6536321875 -5.5730983125 -5.6522787040
167 1 2.2334603125 -4.5128903125 -4.9025133280
168 1 -1.7557571875 -2.3568568750 -3.2364069040
169 1 -0.6214575000 -2.4344853125 -3.2230792960
170 1 1.6717593750 -3.2630953125 -2.4333440480
171 1 -0.5276368750 -6.3506861250 -5.6473556488
172 1 -1.6632668750 -6.2756336563 -2.4414001920
173 1 1.6628234375 -4.4298465625 -5.7001026688
174 1 2.2073109375 -2.8423000000 -4.0902027440
175 1 -0.5938971875 -5.7688208750 -6.4332854697
176 1 -1.6751456250 -5.7063795000 -6.4723155705
177 1 -1.6249834375 -2.3670559375 -6.4757802603
178 1 0.6126156250 -3.7110075000 -6.4403882170
179 1 6.7172315625 -5.8940556875 -4.8221202640
180 1 6.7030415625 -4.2511412500 -4.0622134720
181 1 2.2497331250 -5.5592684375 -4.8650950000
182 1 2.2451509375 -3.9752156250 -4.0354416880
183 1 6.1940290625 -6.0220787813 -5.7158289872
184 1 6.1821906250 -4.8341809375 -5.6586769920
185 1 2.2817815625 -6.1310434688 -4.0693629760
186 1 3.3747878125 -6.3311681563 -4.0246785760
187 1 4.4739484375 -6.5578749063 -4.0247692400
188 1 5.0124428125 -6.5253131563 -6.4575449542
189 1 5.5879978125 -6.5709375000 -4.0573953280
190 1 3.3732290625 -4.6934365625 -4.8290754880
191 1 2.8471643750 -6.2898061875 -6.4534155976
192 1 2.7744809375 -5.7034796875 -5.7036787160
193 1 3.3828234375 -5.2591150000 -4.0324109200
194 1 3.9482600000 -5.8034869375 -5.6354359232
195 1 4.4994125000 -6.0099568125 -4.8453302480
196 1 5.0319675000 -4.9167678125 -5.6616909224
197 1 4.4641525000 -5.4234260625 -4.1125967520
198 1 5.0906759375 -5.9790908750 -5.6114488192
199 1 5.6630059375 -5.9971038438 -4.8345671360
200 1 5.5827437500 -5.4348667500 -4.0211556320
201 1 2.8229903125 -3.9467281250 -3.2180150640
202 1 3.3441637500 -4.1044440625 -4.0815637600
203 1 3.3470393750 -5.7980380313 -4.8990162880
204 1 3.4166859375 -3.4930915625 -4.7788994400
205 1 3.9682550000 -4.7321096875 -5.6057201496
206 1 4.5332078125 -4.7845696875 -4.7827332320
207 1 4.4972221875 -4.2169293750 -4.0090584640
208 1 5.6235803125 -4.8994200000 -4.8691619280
209 1 5.6505762500 -4.3339700000 -4.0542091360
210 1 6.1469037500 -5.4124409063 -6.4226097837
211 1 2.2606040625 -3.4139715625 -4.8406804800
212 1 3.9178643750 -3.6805178125 -5.6909158152
213 1 3.9660109375 -3.0799287500 -6.4342255258
214 1 3.3605171875 -2.3697568750 -4.8658721200
215 1 4.5449790625 -3.1319721875 -3.9855635360
216 1 4.4917934375 -2.6250962500 -4.8952990640
217 1 5.1022859375 -2.6108121875 -5.6127504952
218 1 5.5803250000 -3.7759509375 -4.8670637040
219 1 6.1856440625 -3.7220934375 -5.6065296496
220 1 5.6375553125 -3.2123956250 -4.0724973600
221 1 6.1884659375 -4.2780162500 -6.4730075699
222 1 2.8144037500 -6.2529202500 -3.1961909440
223 1 3.9267600000 -6.3907621250 -3.2173545120
224 1 5.0578884375 -6.5326943750 -3.2303583200
225 1 6.1831984375 -6.5598717188 -3.2667793440
226 1 2.2696609375 -5.0263909375 -3.9985025840
227 1 2.8434421875 -5.6739682500 -2.4153407680
228 1 3.9554087500 -5.2495475000 -3.2197376800
229 1 3.9429790625 -5.8335210938 -2.4247309680
230 1 5.0041653125 -5.4393575625 -3.2444500960
231 1 5.0803559375 -5.9823360313 -2.4084632560
232 1 6.1653131250 -5.4458035313 -3.2524285280
233 1 6.1733621875 -5.9975445938 -2.4416203760
234 1 2.8141350000 -4.5456509375 -2.4383176160
235 1 2.8345196875 -5.1080237500 -3.2146475440
236 1 3.8944562500 -4.1832281250 -3.2600184000
237 1 3.9638609375 -4.7122221875 -2.3760055440
238 1 5.0633306250 -4.3680206250 -3.2506152480
239 1 5.1020978125 -4.8825156250 -2.3953169760
240 1 6.1576806250 -4.2515309375 -3.1940409120
241 1 6.1914490625 -4.8754206250 -2.4817715760
242 1 3.3659862500 -2.9158434375 -4.0244583920
243 1 2.7656793750 -2.8871140625 -3.2586454880
244 1 6.2224090625 -3.1803471875 -3.2414452320
245 1 3.9594668750 -3.6303421875 -2.4450397040
246 1 3.9363409375 -3.0445343750 -3.2517161680
247 1 5.0062884375 -3.7742175000 -2.4655427200
248 1 5.1376534375 -3.2089421875 -3.2038455760
249 1 6.1845556250 -3.7137890625 -2.3635327680
250 1 2.7884962500 -2.3883409375 -5.6763746048
251 1 4.4794175000 -3.6724553125 -4.8561192640
252 1 3.9240187500 -2.5032987500 -5.6664002696
253 1 5.6651021875 -2.6236450000 -4.8260317680
254 1 6.2041743750 -2.6468381250 -5.6844916232
255 1 2.8481721875 -3.4226925000 -2.3752931840
256 1 3.9137390625 -2.4933550000 -2.5060177200
257 1 5.0584662500 -2.6109062500 -2.4511271440
258 1 6.1732546875 -2.6176787500 -2.3947988960
259 1 2.8308512500 -2.3457037500 -2.4226975040
260 1 2.8449068750 -5.0912403125 -6.4024003895
261 1 2.8412653125 -4.5132396875 -5.6475900800
262 1 2.8653184375 -3.4426740625 -5.6153175816
263 1 5.0463321875 -3.7802912500 -5.6939349264
264 1 3.9625575000 -6.3898416563 -6.3953383115
265 1 5.0881093750 -4.3548518750 -6.4489812214
266 1 5.0492615625 -3.1662378125 -6.4168475684
267 1 -6.1265755000 -1.9187809375 -6.4521025238
268 1 -5.5525752188 -1.8101521875 -4.1058358080
269 1 -4.3713531250 -2.2326406250 -4.8354608240
270 1 -3.9554221875 -1.5223746875 -6.4445318208
271 1 -4.4821184375 -1.6604584375 -4.0623041360
272 1 -3.8681456250 -2.1137859375 -5.7237970576
273 1 -3.3408178125 -2.0588937500 -4.8412762720
274 1 -3.3569159375 -1.4843062500 -3.9881539360
275 1 -6.1851589688 -1.3668759375 -5.6413692344
276 1 -5.6278628438 -1.2240756250 -4.8641624560
277 1 -5.5611429688 -0.6880134375 -4.0300148000
278 1 -5.0165815625 -1.1916778125 -5.6098647896
279 1 -4.4404756250 -1.0954250000 -4.8560933600
280 1 -4.4640987500 -0.5133931250 -4.0951892640
281 1 -3.8807365625 -0.9529875000 -5.6497375216
282 1 -3.3053965625 -0.9953156250 -4.8565596320
283 1 -2.8048631250 -0.2447909375 -6.4462837083
284 1 -3.3734709375 -0.4064440625 -4.0632884880
285 1 -2.7665259375 -0.8160190625 -5.6779534536
286 1 -6.2055530625 -0.2182115625 -5.6642709608
287 1 -5.6352118125 -0.1292284375 -4.8609892160
288 1 -5.5785149688 0.4077475000 -4.0120503760
289 1 -5.0590037500 -0.0718100000 -5.6522294864
290 1 -4.5107403125 0.0698078125 -4.8582692960
291 1 -3.9085387500 0.6775590625 -6.4347129096
292 1 -4.4279787500 0.6073884375 -4.0176456400
293 1 -3.8990787500 0.1082928125 -5.6104087736
294 1 -3.3328762500 0.1694065625 -4.8293345280
295 1 -2.8308512500 0.8836096875 -6.4737925388
296 1 -3.3346634375 0.7667975000 -4.0817709920
297 1 -2.7863731250 0.3369453125 -5.6560451456
298 1 -6.1201201250 0.8852356250 -5.7078311272
299 1 -5.6119568750 0.9796878125 -4.8006847040
300 1 -5.5607438750 1.5667318750 -4.0381357040
301 1 -5.0829090625 1.0748790625 -5.6712546792
302 1 -4.5181981250 1.1583125000 -4.8571295200
303 1 -4.4233965625 1.7003140625 -4.0323979680
304 1 -3.9453440625 1.2331190625 -5.6358762912
305 1 -3.3702325000 1.3434678125 -4.8790961120
306 1 -2.7918556250 1.9779596875 -6.4410148347
307 1 -2.7627903125 1.4158959375 -5.6138423488
308 1 -6.0535426875 -1.9307134375 -3.2379740960
309 1 -5.0134103125 -1.7167078125 -3.1992476160
310 1 -3.9494559375 -1.5334203125 -3.2266281440
311 1 -3.8579465625 -2.1174812500 -2.4500780320
312 1 -2.7679234375 -1.4733681250 -3.2215768640
313 1 -2.8002406250 -2.0346928125 -2.5340847040
314 1 -6.1406136563 -0.7926646875 -3.2350728480
315 1 -6.1963765938 -1.3660293750 -2.4522280640
316 1 -4.9886046875 -0.6348815625 -3.2357722560
317 1 -5.0733818750 -1.1628006250 -2.3686876640
318 1 -3.9240053125 -0.4322306250 -3.2088968560
319 1 -3.8799034375 -0.9899271875 -2.3944362400
320 1 -2.8373281250 -0.2692606250 -3.2226907360
321 1 -2.7703556250 -0.8439421875 -2.4771736160
322 1 -6.1723745313 0.3153378125 -3.2379481920
323 1 -6.1333950313 -0.2324821875 -2.4250806720
324 1 -5.0086400000 0.5019578125 -3.2441522000
325 1 -5.0596353125 -0.0696465625 -2.4476042000
326 1 -3.8564818750 0.6558440625 -3.2295552960
327 1 -3.9519015625 0.1302631250 -2.3746714880
328 1 -6.1211360000 1.4395459375 -3.2560291840
329 1 -6.1507818125 0.8989284375 -2.4345097280
330 1 -5.0002550000 1.6325218750 -3.2290501680
331 1 -5.0353268750 1.0554081250 -2.4370483200
332 1 -2.7657196875 1.9753662500 -3.2180150640
333 1 -3.9412590625 1.2355512500 -2.4363359600
334 1 -2.8040300000 0.8811909375 -3.1947273680
335 1 -2.8279487500 1.4478368750 -2.3641803680
336 1 -2.7781090625 -1.9282006250 -5.6581291224
337 1 -2.2641918750 0.8894281250 -4.0633143920
338 1 -2.2427993750 2.0714309375 -4.0779242480
339 1 -6.6763391000 1.8930212500 -4.8614295840
340 1 -6.1222875938 2.0076296875 -5.6775053144
341 1 -5.0227493750 2.1580490625 -5.6956135056
342 1 -3.3316534375 1.8719109375 -4.0233445200
343 1 -6.1653131250 2.0212418750 -2.4734175360
344 1 -5.0561146875 2.1851121875 -2.3975317680
345 1 -3.8935828125 1.8186178125 -3.2001024480
346 1 -2.7676009375 0.3086325000 -2.4075825200
347 1 -2.2544228125 -0.1922771875 -3.9756423040
348 1 -6.6535345875 -1.9643609375 -4.0165058640
349 1 -6.7008222250 -0.8916184375 -4.0326181520
350 1 -6.6632357906 0.8248609375 -4.8231823280
351 1 -5.5815263125 2.1254765625 -4.8480113120
352 1 -6.1066288750 -0.7943846875 -6.4334060528
353 1 -5.0294412500 -0.6355937500 -6.4402391394
354 1 -4.9615415625 0.4973487500 -6.4507742962
355 1 -3.8505693750 1.8060671875 -6.4387707712
356 1 1.1296100000 -2.1276265625 -4.8214079040
357 1 -2.2251559375 -1.8883046875 -4.7800392160
358 1 -2.2187328125 -0.7241468750 -4.8585412880
359 1 -2.1996784375 0.3269881250 -4.8718041360
360 1 1.6633340625 -1.6293506250 -3.2701598160
361 1 -1.7322818750 1.0334646875 -3.2278585840
362 1 -2.2151853125 -1.2645762500 -4.0646354960
363 1 -1.7240178125 -1.8128396875 -5.6494473968
364 1 -1.0937990625 -1.2276365625 -4.0013261200
365 1 -0.6012475000 -1.8466350000 -5.6750237112
366 1 -0.5143068750 -1.2511387500 -3.1937300640
367 1 -1.1302012500 -1.7665475000 -4.8465995440
368 1 -0.0181540625 -1.9521328125 -4.8971382480
369 1 -0.0026875000 -1.4221040625 -4.0434330720
370 1 0.5964906250 -1.9561371875 -5.6414171568
371 1 1.1052343750 -1.5362959375 -4.0812658640
372 1 1.7192475000 -2.1525934375 -5.6160441888
373 1 -1.6837993750 -0.1207493750 -6.4264608018
374 1 -1.6490365625 -0.7147271875 -5.6772799496
375 1 -1.1029500000 -0.6916818750 -4.8609115040
376 1 -0.5351484375 -0.1482290625 -3.2274829760
377 1 -0.5190234375 -0.6684081250 -5.6548665136
378 1 0.0287696875 -0.8452456250 -4.8288812080
379 1 0.5930640625 -0.8870228125 -5.6267995296
380 1 -0.0063962500 -0.2604053125 -4.0804110320
381 1 1.1709437500 -0.9338793750 -4.7944547920
382 1 1.1618734375 -0.3714528125 -4.0104572800
383 1 1.6856268750 -1.1014315625 -5.6514653184
384 1 -1.6417265625 0.4665365625 -5.6805775288
385 1 -1.1268150000 -0.1396693750 -4.0377860000
386 1 -1.1028828125 0.4284143750 -4.8386988240
387 1 -0.5298809375 0.3843796875 -5.6499046024
388 1 0.0114353125 0.3419440625 -4.7981461120
389 1 0.5583684375 0.7649565625 -6.4433631618
390 1 0.0391434375 0.9142203125 -4.0257017840
391 1 0.5566081250 0.1954081250 -5.6546139496
392 1 1.1235362500 0.1724971875 -4.8600955280
393 1 1.7021818750 0.0550668750 -5.6462612048
394 1 1.1594950000 0.7308656250 -4.0523181440
395 1 -2.1984287500 1.4870071875 -4.8143361120
396 1 -1.6673250000 1.5554578125 -5.6458260176
397 1 -1.1447003125 0.9830203125 -4.0264141440
398 1 -0.5806343750 2.0707053125 -6.4499473110
399 1 -1.0826459375 1.5456215625 -4.8242314400
400 1 -0.5708653125 1.4881628125 -5.6844061400
401 1 -0.0016662500 1.4607100000 -4.8693432560
402 1 0.0136390625 2.0121984375 -4.0447930320
403 1 0.5748159375 1.3337928125 -5.6466005472
404 1 1.1394193750 1.2888443750 -4.8692655440
405 1 1.7046140625 1.1716962500 -5.6747815088
406 1 1.6503668750 0.6035318750 -6.4654946976
407 1 -1.6504340625 -1.2701125000 -3.2244781120
408 1 -0.5663771875 -0.6964118750 -2.3993191440
409 1 0.5845446875 -1.4125500000 -3.2135725280
410 1 0.5448503125 -1.9980487500 -2.4352220880
411 1 1.7271756250 -1.0763437500 -2.4404158400
412 1 -1.6976400000 -0.7162187500 -2.4494045280
413 1 -0.5303243750 0.4162265625 -2.4099397840
414 1 -0.5695215625 0.9454625000 -3.2850416640
415 1 0.5593090625 -0.3532718750 -3.2762861120
416 1 1.7514034375 -0.5154356250 -3.2450329360
417 1 -1.6330056250 1.5604162500 -2.3946823280
418 1 -1.6583218750 -0.1181828125 -3.2160204560
419 1 -0.5544850000 2.0677759375 -3.2260064480
420 1 -1.6420221875 0.4427790625 -2.4594811840
421 1 -0.5575890625 1.4822906250 -2.4414260960
422 1 0.5867887500 0.7561818750 -3.2367695600
423 1 1.6795262500 0.6350159375 -3.1794828640
424 1 1.6554462500 0.0386462500 -2.4327223520
425 1 -1.6720146875 2.0990315625 -3.2617410160
426 1 0.5509375000 1.8982484375 -3.1837829280
427 1 1.0925359375 1.8403731250 -4.0393143360
428 1 1.7249046875 1.2035968750 -2.4016764080
429 1 2.2330975000 0.5380778125 -4.0546236000
430 1 1.6631593750 1.7392425000 -3.2591506160
431 1 2.1810675000 2.1904603125 -4.8547593040
432 1 -1.6515762500 -1.8103268750 -2.3541814240
433 1 -0.5540012500 -1.8608921875 -2.4700370640
434 1 1.7093709375 -2.1478096875 -2.3674831280
435 1 0.6327987500 -0.8680625000 -2.3882063280
436 1 0.5542296875 0.1984315625 -2.4249252480
437 1 0.5414371875 1.3138918750 -2.4266608160
438 1 -1.1002625000 2.1357696875 -4.0540666640
439 1 -0.5199640625 -1.2640790625 -6.4057930364
440 1 1.6899000000 -0.5241700000 -6.4307537422
441 1 2.2779384375 -2.2215143750 -4.7917219200
442 1 6.6626618750 -1.4455525000 -4.8703794160
443 1 6.7056753125 1.3743471875 -3.9792688640
444 1 2.2603353125 1.1133640625 -4.8305520160
445 1 6.6972365625 -0.3292321875 -4.8112664880
446 1 6.6968334375 0.2457450000 -4.0386278800
447 1 2.2638021875 -0.0256790625 -4.8643437840
448 1 2.8243071875 -1.7987975000 -3.2509131440
449 1 3.3582596875 -1.2828646875 -4.8817771760
450 1 4.4885281250 -2.0856478125 -4.0949690800
451 1 6.2187675000 -2.0583428125 -6.4245340623
452 1 5.5999437500 -2.0776121875 -3.9921172480
453 1 2.2668659375 -1.0978975000 -4.8378698960
454 1 2.9463600000 -0.6671718750 -3.2027576080
455 1 2.8088943750 -1.2206490625 -5.6693908864
456 1 3.4224371875 -0.7516668750 -3.9841906240
457 1 3.9793543750 -1.3936165625 -5.6148577856
458 1 4.5209796875 -1.4453106250 -4.7839895760
459 1 4.3635728125 -0.8852221875 -3.8996788240
460 1 5.0326125000 -1.5457693750 -5.6889004840
461 1 5.5730418750 -1.5228584375 -4.7958147520
462 1 5.6068909375 -0.9481903125 -4.0000309200
463 1 6.0856018750 -1.4793209375 -5.6669028072
464 1 2.3129968750 -0.5636896875 -4.0020384800
465 1 2.8386584375 -0.0679937500 -5.6610096472
466 1 3.3777575000 -0.1843087500 -4.8276637200
467 1 3.9885187500 0.3022496875 -6.4404419678
468 1 3.3623178125 0.4039984375 -4.0385113120
469 1 3.9216537500 -0.2766646875 -5.6756570640
470 1 4.4839996875 -0.3886393750 -4.8361602320
471 1 4.4974909375 0.2108746875 -4.0552323440
472 1 6.1489193750 -0.3729981250 -5.6305297056
473 1 5.5544443750 -0.4261300000 -4.8368207840
474 1 5.5769790625 0.1561437500 -4.0478238000
475 1 2.7743196875 1.0269340625 -5.7106080360
476 1 3.3310890625 0.9336106250 -4.8610410240
477 1 3.9599371875 1.4386321875 -6.4517235483
478 1 3.4289006250 1.4838896875 -4.0246656240
479 1 3.8991190625 0.8794978125 -5.6582236720
480 1 4.4686675000 0.7205321875 -4.9029148400
481 1 5.0937531250 0.7403390625 -5.5917281040
482 1 4.4873187500 1.2943403125 -4.1071828160
483 1 5.0318734375 -0.3985293750 -5.6871312408
484 1 5.6884028125 0.7059525000 -4.8715710000
485 1 6.1154600000 1.3014353125 -6.4462916090
486 1 6.1059865625 1.3056143750 -3.2477269520
487 1 6.2536378125 0.7278153125 -5.6886673480
488 1 2.2663418750 -1.6615468750 -4.0222436000
489 1 3.4162290625 -1.8444581250 -4.0279424800
490 1 5.0382696875 -2.0536396875 -3.2183388640
491 1 6.2162278125 -2.1058443750 -3.2690848000
492 1 2.8015843750 -0.0903537500 -2.3984125040
493 1 2.7696165625 -1.2446215625 -2.4460629120
494 1 3.9659303125 -1.8127993750 -3.1979135600
495 1 3.9345134375 -1.3067296875 -2.4847505360
496 1 4.9760540625 -0.9678225000 -3.2856245040
497 1 5.1182496875 -1.4914012500 -2.3786607040
498 1 6.1598440625 -0.9292703125 -3.2131839680
499 1 6.1712121875 -1.5335546875 -2.4800748640
500 1 2.8499325000 1.6029593750 -3.2603940080
501 1 2.7676278125 0.4623171875 -3.2449034160
502 1 3.9329546875 0.2175665625 -3.2494366160
503 1 3.9326590625 -0.3806709375 -2.5956455600
504 1 5.0626721875 0.1734646875 -3.2108914640
505 1 4.9992203125 -0.4237381250 -2.4393667280
506 1 6.1537031250 0.1728196875 -3.2146475440
507 1 6.1182012500 -0.3726487500 -2.4014303200
508 1 2.2647025000 1.6600284375 -3.9936844400
509 1 3.9792334375 1.3768600000 -3.1907381520
510 1 3.8807096875 0.7949490625 -2.4491972960
511 1 5.5641462500 1.2609078125 -4.0691039360
512 1 5.0913478125 1.8429800000 -2.3896958080
513 1 6.2154484375 0.7658568750 -2.4316732400
514 1 3.3222203125 2.0172106250 -4.8791220160
515 1 3.9397406250 1.9963556250 -5.6106419096
516 1 4.5096250000 1.9064453125 -4.8367689760
517 1 5.0556578125 1.8301337500 -5.6536762248
518 1 5.6352843750 1.8400909375 -4.8384268320
519 1 6.1796375000 1.8651921875 -5.6502206312
520 1 3.9102184375 1.9628425000 -2.3834788480
521 1 5.0121740625 1.2630175000 -3.2078347920
522 1 6.2013256250 1.8750821875 -2.4545853280
523 1 2.8266050000 1.0155256250 -2.4694153680
524 1 5.0684637500 0.7079950000 -2.3893331520
525 1 2.7386834375 2.1371671875 -2.4393926320
526 1 2.7643625000 2.1952843750 -5.6481599680
527 1 2.8315634375 -1.8005175000 -6.4221587950
528 1 3.9155800000 -1.9302296875 -6.4513707358
529 1 2.7713231250 -0.6390203125 -6.4365897839
530 1 3.8970362500 -0.8452859375 -6.4723584934
531 1 5.0730593750 0.2034840625 -6.4421684694
532 1 5.0676978125 -0.9520065625 -6.4677227524
533 1 2.8768746875 1.6248759375 -6.4371732715
534 1 -5.5805211875 6.5758421875 -4.8907270080
535 1 -5.0170653125 6.6477059375 -5.7008590656
536 1 -3.3699503125 6.3454428125 -4.0891795360
537 1 -5.0282856250 6.6239350000 -2.4409209680
538 1 -6.1731015000 6.5336484375 -5.6701459880
539 1 -3.9168028125 2.9076465625 -3.2404738320
540 1 -6.1798887813 2.6102881250 -3.2176265040
541 1 -5.0962659375 2.7396106250 -6.4669651252
542 1 -5.6169798125 2.6671825000 -4.0033207280
543 1 -4.4956096875 2.2861487500 -4.8052308560
544 1 -4.4925325000 2.8540175000 -4.0330067120
545 1 -3.9681071875 2.3697703125 -5.6583350592
546 1 -3.3943393750 2.4488231250 -4.8413410320
547 1 -2.7441121875 3.1073278125 -6.4493057985
548 1 -2.8382015625 2.5299721875 -5.6456615272
549 1 -6.7150781091 2.4582025000 -4.0605167600
550 1 -6.1678675938 3.1632950000 -5.6219062640
551 1 -6.7120692109 3.6239459375 -4.0994504720
552 1 -6.1815523438 2.5964609375 -6.4321393472
553 1 -5.5450784375 3.1946984375 -4.9034329200
554 1 -5.0791465625 3.8966465625 -6.4302097582
555 1 -5.6139872813 3.7317684375 -4.0721217520
556 1 -4.9717271875 3.3064043750 -5.6785712640
557 1 -4.4373312500 3.4220340625 -4.8403825840
558 1 -4.5260187500 3.9555968750 -3.9965727360
559 1 -3.8809650000 3.4565684375 -5.6953842552
560 1 -3.3736456250 3.5889950000 -4.7809717600
561 1 -3.3545778125 4.1556543750 -3.9945910800
562 1 -2.8507118750 3.6698081250 -5.6536529112
563 1 -6.1305301563 5.3639946875 -5.6805943664
564 1 -6.1781808750 4.2381068750 -5.6365200056
565 1 -3.9414606250 5.1927740625 -6.4369181171
566 1 -5.5829493438 4.9134756250 -4.0979998480
567 1 -5.6066302500 4.3242815625 -4.8354737760
568 1 -4.4247268750 4.4814600000 -4.8882920320
569 1 -3.9269750000 5.7437115625 -5.6123127176
570 1 -4.4972759375 5.0320346875 -4.0904099760
571 1 -5.0444240625 4.4509703125 -5.6158032816
572 1 -3.3349053125 4.7028965625 -4.8370021120
573 1 -2.8575784375 5.3232253125 -6.4457572095
574 1 -3.4013940625 5.2498431250 -3.9842553840
575 1 -2.7584096875 4.7561896875 -5.6725926208
576 1 -6.7175466625 5.2893090625 -4.8942629040
577 1 -6.1640983750 5.9516300000 -6.4370183656
578 1 -5.6190908438 5.5176390625 -4.8334921200
579 1 -5.5831361250 6.0553137500 -3.9916509760
580 1 -5.0344803125 5.5087837500 -5.6448338944
581 1 -4.4856659375 5.6382406250 -4.8236874560
582 1 -5.0411990625 6.0749862500 -6.4625744749
583 1 -4.4411609375 6.2266418750 -4.0888168800
584 1 -3.3067537500 5.7626584375 -4.8672709360
585 1 -2.8446918750 6.4821828125 -3.2214343920
586 1 -2.7726668750 5.9149053125 -5.6804674368
587 1 -6.1048672188 3.1732387500 -2.3971950160
588 1 -5.0239856250 2.7267643750 -3.2173933680
589 1 -3.8819459375 2.3801037500 -2.3808366400
590 1 -3.3397562500 2.9946543750 -4.0229559600
591 1 -2.7786196875 3.1070187500 -3.2358370160
592 1 -6.1936084688 3.7126871875 -3.2291537840
593 1 -5.0988593750 3.9132150000 -3.2129896880
594 1 -5.0137328125 3.3296109375 -2.4807354160
595 1 -3.9313421875 4.0161059375 -3.2365752800
596 1 -3.9174209375 3.4639187500 -2.4106003360
597 1 -2.7693612500 4.2344250000 -3.1914764160
598 1 -2.8341837500 3.6435646875 -2.4211432640
599 1 -6.1153511563 4.7643462500 -3.2511203760
600 1 -6.1409751250 4.2603728125 -2.3454647280
601 1 -5.0504037500 5.0243618750 -3.2192325520
602 1 -4.9659625000 4.4730346875 -2.4066629280
603 1 -3.9849443750 5.1766625000 -3.2195304480
604 1 -3.8630528125 4.6009193750 -2.4568130720
605 1 -2.8006706250 5.3268803125 -3.2457841520
606 1 -2.8381343750 4.8096440625 -2.3843077760
607 1 -6.1306887188 6.5018150000 -2.4628487040
608 1 -6.1463245938 5.9216375000 -3.2156578000
609 1 -4.9625628125 6.0742875000 -3.2544490400
610 1 -5.0751556250 5.5586503125 -2.3527567040
611 1 -3.9057303125 6.2590800000 -3.1939632000
612 1 -3.8694221875 5.7030631250 -2.3602559120
613 1 -2.7617959375 5.9146903125 -2.4490289200
614 1 -2.2770515625 2.6494853125 -4.8510679840
615 1 -2.2657371875 3.7244046875 -4.8723999280
616 1 -2.8000659375 2.5541059375 -2.4113774560
617 1 -6.1738607188 5.3330212500 -2.4579658000
618 1 -3.8654715625 4.6057300000 -5.6804622560
619 1 -2.7993806250 6.4896809375 -6.4481161573
620 1 -2.2621762500 6.5532403125 -3.9749817520
621 1 -6.7065986300 6.3855537500 -4.8324300560
622 1 -6.7066271041 4.7624515625 -4.0230336720
623 1 -6.7120894075 5.8237587500 -4.0245102000
624 1 -3.9838559375 4.0433168750 -6.4655077661
625 1 -6.1568071875 4.7960856250 -6.4658513179
626 1 -2.2329093750 4.8749637500 -4.7997392080
627 1 -2.2368465625 5.4375650000 -4.0218291360
628 1 -1.6453546875 6.6129700000 -3.2525969040
629 1 1.1352000000 2.4097334375 -4.8343080960
630 1 -1.6850221875 3.2227290625 -6.4200834961
631 1 -2.2020837500 3.2007453125 -4.0061960720
632 1 -1.6958528125 2.6361418750 -5.6396634560
633 1 -1.1339234375 2.6746000000 -4.8658721200