ITEM: TIMESTEP
107000
ITEM: NUMBER OF ATOMS
2304
ITEM: BOX BOUNDS pp pp pp
-6.7187500000 6.7187500000
-6.7187500000 6.7187500000
-6.4760000000 6.4760000000
ITEM: ATOMS id type x y z
1 1 -6.6989052313 -5.8594205313 -4.0829625760
2 1 -6.2442396250 -5.7717610000 -6.4713835186
3 1 -6.1059919375 -6.3184764375 -5.6811318744
4 1 -5.5848534375 -6.3187922188 -4.8280522800
5 1 -5.6351070000 -5.7195213750 -4.0768233280
6 1 -5.0232868750 -6.2965880938 -5.6586200032
7 1 -4.4672162500 -6.2734688750 -4.8464182160
8 1 -3.9096675000 -5.2553659375 -5.7248707784
9 1 -4.5162362500 -5.7369296563 -4.0104054720
10 1 -3.9051390625 -6.4018305938 -5.6468336832
11 1 -3.3192775000 -6.4533755000 -4.8633853360
12 1 -3.3508421875 -5.9407214375 -3.9824550560
13 1 -2.7841021875 -6.5603998125 -5.7255131976
14 1 -6.1843997500 -5.2313800000 -5.5766377288
15 1 -5.5525873125 -5.1731956250 -4.8771015040
16 1 -5.0642040625 -4.5836253125 -6.4548263294
17 1 -5.6076017813 -4.6231450000 -4.0596748800
18 1 -5.0168906250 -5.1585756250 -5.6816253456
19 1 -4.4468853125 -5.1933384375 -4.8511327440
20 1 -4.4783425000 -4.6424546875 -3.9928425600
21 1 -3.3043753125 -4.8096843750 -4.0684174800
22 1 -2.8405934375 -5.4293251250 -5.6669338920
23 1 -6.1827550000 -3.5639340625 -6.4543449036
24 1 -6.1778422500 -4.1587584375 -5.7076653416
25 1 -5.0578884375 -4.0087153125 -5.6578454736
26 1 -5.5717800938 -3.5061259375 -3.9958085680
27 1 -4.5045993750 -4.1111090625 -4.8323523440
28 1 -3.9430731250 -4.1410075000 -5.6335786064
29 1 -4.4384331250 -3.5081012500 -4.0984661200
30 1 -3.3537850000 -4.2411034375 -4.8541376080
31 1 -3.3999831250 -5.3820425938 -4.8172373600
32 1 -3.9185362500 -3.6107503125 -3.1827338160
33 1 -2.7990715625 -4.3564375000 -5.6210268232
34 1 -6.6941256469 -3.0847393750 -4.9009461360
35 1 -6.1662389688 -2.9930284375 -5.7120677264
36 1 -5.6493816563 -2.9578759375 -4.7994413120
37 1 -5.6177215625 -4.0506940625 -4.8540987520
38 1 -5.0150093750 -2.3641668750 -6.4606902179
39 1 -5.6418714375 -2.3520328125 -4.0520072960
40 1 -5.0959031250 -2.9311353125 -5.6501105392
41 1 -4.5228206250 -2.9192431250 -4.8445142720
42 1 -3.9294071875 -2.4951825000 -6.4122524578
43 1 -4.5057953125 -2.3639787500 -4.0470466800
44 1 -3.9544950000 -3.0554321875 -5.6091614960
45 1 -3.3214140625 -3.1052718750 -4.9069170080
46 1 -2.8292118750 -2.6265878125 -6.4697228909
47 1 -3.3836968750 -2.6055043750 -3.9847605120
48 1 -2.7489093750 -3.1873078125 -5.6782267408
49 1 -6.1602713750 -5.7922155625 -3.1921499200
50 1 -6.1529519688 -6.3833768750 -2.4063779840
51 1 -5.0886737500 -5.7545811563 -3.2236232800
52 1 -5.0557250000 -6.2893022813 -2.3719515680
53 1 -3.9388940625 -5.8254411250 -3.2523637680
54 1 -3.8781296875 -6.3770088438 -2.4490548240
55 1 -2.7365871875 -5.9743192188 -3.2714032080
56 1 -2.7992193750 -6.5497411875 -2.4961353440
57 1 -6.1592595313 -4.7064171875 -3.2167846240
58 1 -6.1844615625 -5.2363115625 -2.3839839760
59 1 -5.0603206250 -4.6134834375 -3.2243615440
60 1 -4.9899215625 -5.1766490625 -2.4351184720
61 1 -3.8610237500 -4.6768546875 -3.2708721760
62 1 -3.9321484375 -5.2534309375 -2.4693247040
63 1 -2.7302446875 -4.3246443750 -2.3978167120
64 1 -6.1707270938 -3.5890353125 -3.2898080000
65 1 -6.1626000938 -4.1094831250 -2.4305593680
66 1 -4.9757987500 -3.4659478125 -3.2503950640
67 1 -5.0749943750 -4.0272053125 -2.4589631040
68 1 -3.9526406250 -4.1776112500 -2.3762904880
69 1 -3.3735381250 -3.6563975000 -4.0830791440
70 1 -6.1748040313 -2.4332625000 -3.2121478080
71 1 -6.1607940938 -3.0296725000 -2.4793236480
72 1 -5.0672006250 -2.3950731250 -3.2384533200
73 1 -5.0717559375 -2.9282865625 -2.3884783200
74 1 -3.9509475000 -2.4763834375 -3.2272239360
75 1 -3.8796346875 -3.0181565625 -2.4184751520
76 1 -2.7553996875 -2.6090921875 -3.2724523200
77 1 -2.8468015625 -3.7674987500 -3.2067856800
78 1 -2.2825340625 -5.5388676250 -4.8499800160
79 1 -2.7749378125 -4.8938837500 -3.1901682640
80 1 -2.2865787500 -3.8893768750 -3.9982046880
81 1 -6.6896050031 -6.4450321563 -4.9032645440
82 1 -5.0957687500 -5.7232059375 -6.4498982230
83 1 -2.8473928125 -5.4564285625 -2.3894108640
84 1 -2.7635831250 -3.1710887500 -2.4783522480
85 1 -3.9598028125 -5.8519882500 -6.4722378973
86 1 -6.1468190938 -2.3964571875 -6.4746515155
87 1 -2.2815128125 -6.6832586063 -4.8248919920
88 1 -6.7053130778 -4.7283471875 -4.0700623840
89 1 -6.7003392813 -4.1463018750 -4.8287646400
90 1 -3.8833434375 -3.5889412500 -6.4680446226
91 1 -2.8192009375 -3.7794715625 -6.4045487378
92 1 -2.2221862500 -4.9545540625 -4.0897882800
93 1 -1.7159821875 -5.0619600000 -3.1963981760
94 1 -1.7115075000 -5.6397402500 -5.6062097352
95 1 -2.1760015625 -6.1015535313 -4.0554913840
96 1 -1.7118434375 -6.7064714575 -5.6915349208
97 1 -0.5432781250 -6.3582702500 -6.4379594579
98 1 -1.0995368750 -6.2507017188 -4.1065222640
99 1 -0.0566121875 -6.4568920938 -4.0277352480
100 1 1.1060675000 -6.6068519063 -3.9881798400
101 1 -1.6676071875 -5.0852068750 -6.4097658034
102 1 -1.0791521875 -5.6829498750 -4.9033681600
103 1 -0.5036912500 -5.7864253438 -5.6569453096
104 1 -0.4994450000 -4.6352521875 -5.6786800608
105 1 -1.1455200000 -5.1796590625 -4.0000956800
106 1 -0.5955634375 -5.2151878125 -6.4369621539
107 1 0.0482003125 -5.9234703750 -4.8557307040
108 1 0.0803965625 -5.3675690625 -4.0325145360
109 1 0.6350965625 -5.9222663750 -5.6720305040
110 1 1.1127056250 -6.0473695000 -4.7995967360
111 1 1.2925665625 -5.4194203438 -4.0984790720
112 1 1.6917140625 -5.4577817188 -6.4629283235
113 1 -2.1622550000 -4.4066803125 -4.9025392320
114 1 -1.7330075000 -3.9214387500 -6.4483689803
115 1 -1.6027040625 -4.4910543750 -5.6680386976
116 1 -1.0495628125 -4.6271090625 -4.8178072480
117 1 -1.0998190625 -4.0577890625 -4.0233833760
118 1 0.0078609375 -4.7766012500 -4.7805961520
119 1 1.2173165625 -4.3003090625 -4.0581206400
120 1 0.0941834375 -4.1682050000 -4.0721606080
121 1 0.5508300000 -4.8643078125 -5.6408498592
122 1 1.6964037500 -4.3569212500 -6.4411178031
123 1 1.1176237500 -3.7512259375 -4.8942499520
124 1 1.1223806250 -4.8647915625 -4.8748608080
125 1 -2.2163812500 -3.3491759375 -4.8341915280
126 1 -2.2063031250 -2.7771012500 -4.0560094640
127 1 -1.6404768750 -3.3427528125 -5.6752283528
128 1 -1.1251621875 -3.4805946875 -4.7790419120
129 1 -0.4877543750 -3.0311775000 -6.4588564738
130 1 -1.0587271875 -2.8586400000 -4.0975465280
131 1 -0.5981837500 -3.5868718750 -5.6453726976
132 1 0.5910081250 -3.1564687500 -6.3995499134
133 1 -0.0027815625 -3.5926903125 -4.8551219600
134 1 0.5299884375 -3.7585493750 -5.6846949696
135 1 1.1166025000 -3.2260481250 -4.0197827200
136 1 1.7221634375 -3.2377656250 -3.2650567280
137 1 1.7081615625 -3.7877893750 -5.6292448672
138 1 -1.6351153125 -6.1860928750 -3.1959966640
139 1 -0.5967593750 -6.3437228125 -3.1818142240
140 1 0.5343018750 -6.5052738125 -3.2556665280
141 1 1.7121525000 -6.5798102813 -3.2535942080
142 1 -1.6221481250 -5.6161856563 -2.3968064560
143 1 -0.5289268750 -5.2026506250 -3.2968538880
144 1 -0.4719653125 -5.7443471563 -2.4668249680
145 1 0.6679243750 -5.4032859375 -3.2901188480
146 1 0.5784171875 -5.9548805313 -2.4551940720
147 1 1.7393903125 -5.4944015938 -3.2865440960
148 1 1.6650809375 -6.0174052188 -2.3910687200
149 1 -1.6733987500 -3.9024918750 -3.2771020880
150 1 -1.5929753125 -4.4674178125 -2.4774974160
151 1 -0.4868540625 -4.1076153125 -3.2948981360
152 1 -0.5498625000 -4.6530568750 -2.4564633680
153 1 0.6309040625 -4.3375846875 -3.2466648880
154 1 0.5318428125 -4.8626281250 -2.4159624640
155 1 1.7312875000 -4.3457412500 -3.1872799680
156 1 1.6777659375 -4.9379587500 -2.4187082880
157 1 -1.7179709375 -3.3638093750 -2.4238113760
158 1 0.0253700000 -3.0388368750 -4.0362965200
159 1 -0.6014356250 -3.5837140625 -2.3910687200
160 1 0.5697634375 -3.1705781250 -3.1958023840
161 1 0.5474706250 -3.7550556250 -2.4462053840
162 1 1.7025446875 -6.0194840000 -5.6521517744
163 1 -0.5692662500 -2.4732390625 -5.6491650432
164 1 -1.1235362500 -2.2881912500 -4.8754954560
165 1 0.0494768750 -2.5179590625 -4.9305026000
166 1 0.6359431250 -2.5629075000 -5.6721898136
167 1 1.1950909375 -2.6880240625 -4.8496432640
168 1 1.7528143750 -2.6818831250 -5.6817445040
169 1 -1.6083881250 -2.8270887500 -3.2712089280
170 1 -0.5410206250 -3.0426396875 -3.2076923200
171 1 0.6131262500 -2.6143328125 -2.4279171600
172 1 1.6494531250 -3.7776037500 -2.4094476080
173 1 -1.7150818750 -2.2956356250 -2.3730783920
174 1 -0.5614053125 -2.4686031250 -2.4246144000
175 1 1.7614143750 -2.7015556250 -2.4087222960
176 1 1.7125556250 -4.9074018750 -5.6378942128
177 1 2.2191359375 -5.8581533750 -4.7278944640
178 1 -1.7334106250 -2.3060496875 -5.6265767552
179 1 0.5312918750 -6.5085149375 -6.4163240486
180 1 1.7268934375 -3.2488112500 -6.4694875660
181 1 6.6612778125 -3.6001346875 -3.9997459760
182 1 2.2723350000 -4.4730615625 -4.0788308880
183 1 6.6508503125 -5.3034587500 -4.8684625200
184 1 6.0806165625 -5.3937480000 -5.6651296784
185 1 6.6649865625 -2.5376046875 -4.0183709520
186 1 2.2664762500 -6.4632184688 -4.0812658640
187 1 3.3220993750 -6.3230357813 -4.1062761760
188 1 4.4069625000 -6.1769083438 -4.0114286800
189 1 4.9930793750 -6.6459281563 -5.6795115792
190 1 5.5370428125 -6.5387815625 -4.8814922320
191 1 5.6593912500 -6.0258426250 -4.0095894960
192 1 6.1473068750 -6.5176228750 -5.6146557344
193 1 2.7947178125 -4.1746281250 -6.4433696378
194 1 3.3577221875 -5.7657638438 -4.9162554000
195 1 3.3498343750 -5.2548956250 -3.9662002960
196 1 3.9409903125 -5.7650960000 -5.6431320016
197 1 4.5038065625 -5.6044372500 -4.7919421040
198 1 4.4421687500 -4.9440056250 -4.2297605440
199 1 5.0059256250 -5.4647705625 -5.6951459384
200 1 5.5618753125 -5.4688797500 -4.7973560400
201 1 5.5617006250 -4.8740231250 -3.9839833920
202 1 2.3594771875 -4.9393562500 -4.8596810640
203 1 2.8567184375 -4.7373637500 -5.7273187064
204 1 3.4813068750 -4.6977096875 -4.8744333920
205 1 3.3309546875 -4.1384275000 -4.0041108000
206 1 4.0077075000 -4.5996159375 -5.6057965664
207 1 4.8950125000 -4.4097171875 -5.3990994840
208 1 4.5242046875 -4.0426584375 -4.1373739280
209 1 5.6079928125 -4.3643790625 -4.8576346480
210 1 5.5938162500 -3.7332465625 -4.0878843360
211 1 6.1208350000 -4.8061771875 -6.4143224465
212 1 2.2833537500 -3.8371990625 -4.8392557600
213 1 2.7813206250 -2.5628806250 -5.6071319176
214 1 2.2852484375 -3.2912334375 -4.0641433200
215 1 2.8199131250 -3.6144053125 -5.5905119112
216 1 3.4735534375 -3.6685584375 -4.9138333760
217 1 3.9056093750 -3.3359937500 -5.9581531360
218 1 3.3839925000 -3.0766231250 -4.0899178000
219 1 4.4349125000 -3.4965987500 -4.8916595520
220 1 4.5418615625 -2.8945853125 -4.0228652960
221 1 5.0532256250 -3.3848121875 -5.6477882456
222 1 5.5900403125 -3.1331278125 -4.7091140640
223 1 6.0866096875 -3.1719353125 -5.6106937176
224 1 6.1385187500 -4.2381740625 -5.6365977176
225 1 2.7984400000 -6.4807060313 -3.1584229120
226 1 3.8363121875 -6.3237667813 -3.2338035520
227 1 5.0207875000 -6.0931215000 -3.3392198800
228 1 4.9906875000 -6.6177294281 -2.4525648160
229 1 6.2053703125 -5.9219156563 -3.1950123120
230 1 6.1391368750 -6.5085377813 -2.4378772480
231 1 2.6451046875 -5.3797434375 -3.4858235680
232 1 2.8051990625 -5.8277322188 -2.4823803200
233 1 3.9381684375 -5.1923843750 -3.2202039520
234 1 3.9199875000 -5.7568776250 -2.4336289920
235 1 4.9528340625 -5.0437925000 -3.2504339200
236 1 5.0557518750 -5.5957095938 -2.4095382720
237 1 6.1625315625 -4.8148040625 -3.2868678960
238 1 6.0754296875 -5.3582165625 -2.4361934880
239 1 2.7955509375 -4.2225193750 -3.1825524880
240 1 2.8277606250 -4.8512331250 -2.4704515280
241 1 3.9593728125 -4.0620218750 -3.2972554000
242 1 3.8705509375 -4.6090087500 -2.4481999920
243 1 5.0236093750 -3.9042790625 -3.1912821360
244 1 5.0697940625 -4.4835831250 -2.4415556160
245 1 6.0871740625 -3.7197150000 -3.1853371680
246 1 6.2006537500 -4.2886721875 -2.4242387920
247 1 2.8235009375 -3.0832343750 -3.2209292640
248 1 2.8256375000 -3.6679806250 -2.4345744880
249 1 3.9388537500 -2.9685856250 -3.2812726320
250 1 3.9517940625 -3.5252071875 -2.4591703360
251 1 5.1507012500 -2.7880528125 -3.3977111120
252 1 5.0197662500 -3.3197881250 -2.4178146000
253 1 6.0772571875 -2.5855093750 -3.3363833920
254 1 6.2135806250 -3.1227540625 -2.4389004560
255 1 2.2637484375 -2.6535434375 -4.7509101680
256 1 3.3940303125 -2.5008934375 -4.8353183520
257 1 3.9609181250 -2.4782781250 -5.6714606160
258 1 4.5383275000 -2.3618825000 -4.8900276000
259 1 2.8311334375 -2.5243821875 -2.4292123600
260 1 3.9605015625 -2.4064815625 -2.4930916240
261 1 5.0560206250 -2.3204681250 -2.4359862560
262 1 2.8329206250 -5.3919258750 -6.3650690990
263 1 2.7584096875 -6.0015731563 -5.6434778200
264 1 5.0694984375 -6.0604576250 -6.4311976073
265 1 3.9389746875 -4.0598718750 -6.4215058847
266 1 5.0249665625 -4.8877696875 -6.4726387876
267 1 6.2153006250 -5.9660712813 -6.4505859742
268 1 3.9010406250 -5.1766625000 -6.4722800302
269 1 4.9612862500 -2.8365756250 -6.4344973883
270 1 -6.6744030250 -1.4065031250 -4.0540666640
271 1 -6.1923225000 -1.8789656250 -5.6061346136
272 1 -5.5736734375 -1.8236568750 -4.8952990640
273 1 -5.5773351563 -1.2747215625 -4.0696220160
274 1 -5.0063825000 -1.8193568750 -5.6439311400
275 1 -4.4151190625 -1.8184968750 -4.8599530560
276 1 -4.5009578125 -1.2793575000 -3.9859520960
277 1 -3.8750390625 -1.8912743750 -5.7036851920
278 1 -3.3571981250 -2.0528065625 -4.8169653680
279 1 -3.3183234375 -1.4722796875 -4.0476036160
280 1 -2.7921646875 -2.0520809375 -5.6750586816
281 1 -6.1647191875 -0.7741746875 -5.6855757056
282 1 -5.6047140625 -0.6860650000 -4.8603416160
283 1 -5.5721388750 -0.1611962500 -4.0048361120
284 1 -5.0370065625 -0.6527131250 -5.6649159704
285 1 -4.4882190625 -0.7448137500 -4.8493971760
286 1 -4.4252778125 -0.1774690625 -4.0651794800
287 1 -3.9104468750 -0.7647818750 -5.6550271184
288 1 -3.3740890625 -0.8898850000 -4.8003738560
289 1 -3.3262381250 -0.2836790625 -4.0907467280
290 1 -2.8460759375 -1.0110240625 -5.6290091408
291 1 -6.6891673438 0.2776321875 -4.8803265520
292 1 -6.1169999375 0.3615896875 -5.6895338368
293 1 -5.6116263125 0.4133509375 -4.8043371680
294 1 -5.6136661250 1.0086859375 -4.0502328720
295 1 -5.0661659375 0.4382237500 -5.6866986440
296 1 -4.5335034375 0.4186856250 -4.8170819360
297 1 -4.4591134375 0.9963234375 -4.0721088000
298 1 -3.9746243750 0.3038890625 -5.6172720384
299 1 -3.3603290625 0.2794596875 -4.8943017600
300 1 -2.8535068750 0.7119590625 -6.4209341834
301 1 -3.3689693750 0.8141243750 -4.0326052000
302 1 -2.7843978125 0.1337703125 -5.6484436168
303 1 -6.1169287188 2.0250984375 -6.4596289310
304 1 -6.7079394372 1.9409931250 -4.0369570720
305 1 -6.1973723125 1.4781384375 -5.6175518016
306 1 -5.5979066250 1.5518700000 -4.8815699440
307 1 -5.6013667813 2.0977012500 -4.0525901360
308 1 -5.0295890625 1.5151050000 -5.6375548704
309 1 -4.4378687500 1.5434581250 -4.8721926960
310 1 -4.5245406250 2.1038825000 -4.0435366880
311 1 -3.8847946875 1.4430665625 -5.6864991832
312 1 -3.3224218750 1.3504821875 -4.8843287200
313 1 -2.7350284375 1.3023759375 -5.6773939272
314 1 -6.1620505000 -1.3117687500 -3.2232088160
315 1 -6.1548600938 -1.8713331250 -2.4200552960
316 1 -5.0730459375 -1.2489081250 -3.1930695120
317 1 -4.9827325000 -1.8178250000 -2.4430321440
318 1 -3.8780893750 -1.3219543750 -3.2794204960
319 1 -3.9023575000 -1.8797181250 -2.4723166160
320 1 -2.7342759375 -1.5407303125 -3.2578295120
321 1 -2.8490321875 -2.0721700000 -2.4133720640
322 1 -6.1584290938 -0.2245137500 -3.2805602720
323 1 -6.1485001250 -0.7408765625 -2.3970654960
324 1 -4.9848421875 -0.0756128125 -3.2548116960
325 1 -5.0362943750 -0.6344112500 -2.4736118160
326 1 -3.8739371875 -0.2356668750 -3.2270037520
327 1 -3.9481256250 -0.7900040625 -2.4119602960
328 1 -2.8077521875 -0.4682565625 -3.2119535280
329 1 -2.8232590625 -1.0094115625 -2.3673536080
330 1 -6.1500682813 0.9202000000 -3.1962038960
331 1 -6.1689452813 0.3263296875 -2.4475264880
332 1 -5.0323303125 0.9872800000 -3.2637744800
333 1 -5.0832853125 0.4507071875 -2.3877918640
334 1 -3.9383565625 0.8571378125 -3.2148677280
335 1 -3.9403453125 0.3146256250 -2.3813547200
336 1 -6.1781916250 2.0789962500 -3.2212401120
337 1 -6.1768075625 1.5074456250 -2.4552588320
338 1 -5.0672678125 2.0922859375 -3.2027446560
339 1 -5.0400971875 1.5168787500 -2.4014432720
340 1 -2.8519212500 1.8426440625 -3.2248666720
341 1 -3.9199875000 1.4202093750 -2.4164028320
342 1 -2.8334446875 0.6917087500 -3.1801822720
343 1 -2.7595921875 1.2768715625 -2.4359344480
344 1 -2.2680350000 -2.1772512500 -4.7900511120
345 1 -2.2488596875 -0.4690896875 -4.0368016480
346 1 -2.2811768750 1.7094381250 -4.0079575440
347 1 -3.4115528125 1.9046446875 -4.0333952720
348 1 -3.9618184375 1.9984115625 -3.2106324240
349 1 -2.7930918750 0.1037240625 -2.4177109840
350 1 -2.2929212500 0.5957918750 -4.0366462240
351 1 -6.6899977813 -0.8286368750 -4.7949599200
352 1 -6.6979424344 0.8379087500 -4.0266861360
353 1 -5.0440746875 -1.2407246875 -6.4322768974
354 1 -6.1905850313 -0.2058221875 -6.4707860170
355 1 -2.7751796875 -0.4432493750 -6.4303237358
356 1 -6.1642166250 0.9473303125 -6.4674604744
357 1 -3.9174343750 0.8445871875 -6.4341301991
358 1 -5.0730593750 2.1007650000 -6.4260449131
359 1 -3.9821225000 2.0334028125 -6.4398863270
360 1 -2.1913203125 0.0517746875 -4.9072149040
361 1 -2.2066525000 1.1544290625 -4.8297878480
362 1 1.6472762500 -2.1565575000 -3.2602126800
363 1 -1.7367431250 0.5528053125 -3.2161629280
364 1 -2.1771706250 -1.5803978125 -4.0829884800
365 1 -1.0938393750 -1.7496296875 -4.0348588480
366 1 -0.5538131250 -1.8827953125 -3.1788352640
367 1 -0.0205728125 -1.9931978125 -4.0375917200
368 1 1.0669240625 -2.1184890625 -4.0424487200
369 1 -2.2320359375 -1.0181459375 -4.8825931520
370 1 -1.7194490625 -0.5839534375 -6.4007834618
371 1 -1.6745409375 -1.1813175000 -5.6624149392
372 1 -1.0791387500 -1.2171284375 -4.9099348240
373 1 -0.5965712500 -0.7395193750 -3.2268353760
374 1 -0.4892728125 -1.2772881250 -5.6791346760
375 1 0.0406215625 -1.4297634375 -4.8370150640
376 1 0.5995543750 -1.4430934375 -5.6640650240
377 1 -0.0349240625 -0.8694331250 -4.0310250560
378 1 0.5541893750 -2.0045525000 -6.4746784945
379 1 1.1505590625 -1.5498140625 -4.8259540560
380 1 1.1525746875 -0.9988631250 -4.0142263120
381 1 1.6950062500 -1.5994656250 -5.6314492976
382 1 -1.6013737500 0.0101990625 -5.6789455768
383 1 -1.1720725000 -0.6818859375 -4.0248858080
384 1 -1.0685096875 -0.1413356250 -4.8374683840
385 1 -0.5215765625 -0.1713684375 -5.6838634512
386 1 0.0113815625 -0.2866756250 -4.7898309280
387 1 0.0148350000 0.2935690625 -4.0062608320
388 1 0.5371237500 -0.3681068750 -5.6860329112
389 1 1.0751075000 -0.4224615625 -4.8195169120
390 1 1.6279531250 -0.4636340625 -5.6456887264
391 1 1.1822312500 0.1419134375 -4.0444433280
392 1 -1.6702409375 1.1132028125 -5.6940242952
393 1 -1.1777296875 0.4291265625 -4.0280720000
394 1 -1.1336546875 1.0038215625 -4.8082227680
395 1 -0.6000112500 0.9309903125 -5.6736741128
396 1 -0.0546368750 0.8276156250 -4.8418979680
397 1 0.5640928125 1.2899731250 -6.4526858819
398 1 0.0581171875 1.4133025000 -4.0874828240
399 1 0.5315203125 0.7294412500 -5.6200955744
400 1 1.1167503125 0.7027006250 -4.8535159120
401 1 1.6638178125 0.6733800000 -5.6858360408
402 1 1.1716021875 1.8426978125 -4.9087173360
403 1 -1.6553925000 -1.7675418750 -3.2113188800
404 1 -0.5253525000 -1.2952406250 -2.4196537840
405 1 0.5360487500 -2.0113921875 -3.1822804960
406 1 1.7448728125 -1.6117878125 -2.4595329920
407 1 -1.6785990625 -1.1908043750 -2.4289921760
408 1 -0.4994584375 -0.1686271875 -2.4531606080
409 1 -0.5902287500 0.3840840625 -3.2801458080
410 1 0.5506687500 -0.9101890625 -3.2774258880
411 1 1.7148265625 -1.0159959375 -3.2085601040
412 1 -1.6298746875 1.1356300000 -2.4499355600
413 1 -1.7099084375 -0.5971356250 -3.1805060720
414 1 -0.4908181250 1.5059137500 -3.2566120240
415 1 -1.6330459375 -0.0191753125 -2.4319452320
416 1 -0.5825962500 0.9422240625 -2.4619809200
417 1 0.6029406250 0.2046128125 -3.2791873600
418 1 1.7238431250 0.1211525000 -3.2267835680
419 1 1.6231559375 -0.4428193750 -2.4304428000
420 1 -1.6787200000 1.6705768750 -3.2904815040
421 1 0.5780678125 1.3162703125 -3.1738487440
422 1 1.0998325000 1.2859821875 -4.0743883520
423 1 1.6745543750 0.6712568750 -2.3888280240
424 1 1.6428956250 1.2132315625 -3.2239082240
425 1 2.2102134375 1.2789946875 -4.0038906160
426 1 -1.7402368750 2.2359865625 -5.6844592432
427 1 -1.2088375000 2.1084243750 -4.8405509600
428 1 -0.6171709375 2.0460071875 -5.6258592144
429 1 -0.0365500000 1.9804053125 -4.8771533120
430 1 0.5531950000 1.8361940625 -5.6073352640
431 1 1.7482993750 1.8202706250 -5.6635663720
432 1 -0.6523368750 2.0371787500 -2.3800983760
433 1 0.5628028125 1.8872028125 -2.3703196160
434 1 0.6251931250 -1.4434696875 -2.4207028960
435 1 0.5549821875 -0.3483403125 -2.4491972960
436 1 0.5110415625 0.7289171875 -2.4134238720
437 1 -1.0752956250 1.5673500000 -4.0105997520
438 1 1.7322953125 1.7958950000 -2.4477207680
439 1 -0.5592553125 -1.8826340625 -6.3931709238
440 1 2.2084665625 -0.3787896875 -4.9144550720
441 1 2.2303025000 -2.0554806250 -4.0281497120
442 1 2.2165425000 0.7474743750 -4.8470917200
443 1 -1.6252925000 -1.7601243750 -6.4425976986
444 1 1.7135096875 -1.0268803125 -6.4528442849
445 1 -0.4993240625 1.4871415625 -6.4612893774
446 1 1.7256571875 0.0815790625 -6.4503769289
447 1 1.6394959375 1.2524421875 -6.4491729110
448 1 5.1468984375 -2.2157900000 -5.6691616360
449 1 2.2971943750 0.1628221875 -4.0604260960
450 1 2.2955684375 1.8411928125 -4.8161493920
451 1 5.6243865625 -2.2310146875 -4.6609196720
452 1 6.6849143750 -1.9787793750 -4.8620253760
453 1 6.6764218750 -0.2407731250 -4.0242252560
454 1 6.6701734375 1.3858362500 -4.8560804080
455 1 2.8651840625 -2.0511537500 -6.4672459375
456 1 3.4503603125 -1.9355643750 -4.0339522080
457 1 4.5178890625 -1.7867843750 -4.0687283280
458 1 4.9845600000 -1.6534709375 -6.4408706790
459 1 5.5924321875 -1.6059693750 -4.0392754800
460 1 6.1279971875 -2.0686225000 -5.6911100952
461 1 2.2688546875 -1.4989531250 -4.8224440640
462 1 2.7811325000 -0.8832603125 -6.4434153584
463 1 2.8121462500 -0.9245134375 -3.2221985600
464 1 2.7963975000 -1.4683021875 -5.6856029048
465 1 3.3501434375 -1.3963309375 -4.8400976400
466 1 3.3411537500 -0.7947609375 -4.0587423360
467 1 3.8826043750 -1.3331612500 -5.6946459912
468 1 4.4413625000 -1.2508565625 -4.8995343680
469 1 4.5192462500 -0.7096612500 -4.0535615360
470 1 5.0598503125 -1.1319078125 -5.5780456112
471 1 5.6545671875 -1.0649621875 -4.8792515360
472 1 6.1212515625 -0.3749600000 -6.4321873991
473 1 5.6071462500 -0.5085556250 -4.0551028240
474 1 6.2174640625 -0.9515631250 -5.6604410544
475 1 2.2459975000 -0.8989015625 -4.0513467440
476 1 2.8265109375 0.2057684375 -6.4474754218
477 1 2.8324906250 -0.3305893750 -5.6046114584
478 1 3.4207709375 -0.2573818750 -4.8712212960
479 1 3.3281059375 0.3340965625 -4.0729118240
480 1 3.9648150000 -0.1816212500 -5.7041307408
481 1 4.4859615625 -0.1024743750 -4.7924731360
482 1 4.4288521875 0.4964350000 -4.0465674560
483 1 6.1501153125 0.1838250000 -5.5956227704
484 1 5.5624665625 0.0742825000 -4.8570129520
485 1 5.6195221875 0.6230834375 -4.0323461600
486 1 6.1968643750 0.7082503125 -6.4517977633
487 1 2.7577109375 0.7988996875 -5.6690191640
488 1 3.3368268750 0.8834484375 -4.9015937360
489 1 3.9587950000 1.4900037500 -6.4509895585
490 1 3.4100343750 1.4132353125 -4.0279424800
491 1 3.9384103125 0.9484993750 -5.6025935368
492 1 4.5274028125 1.0456659375 -4.8683459520
493 1 5.0868059375 1.1318137500 -5.6752918176
494 1 4.4736931250 1.6291625000 -4.0733521920
495 1 5.0016928125 -0.0030234375 -5.6750496152
496 1 5.6161628125 1.2101140625 -4.7935999600
497 1 5.5434793750 1.8124365625 -4.0579781680
498 1 6.1305234375 1.3188503125 -5.7123746888
499 1 2.8305287500 -2.0169418750 -3.3249856320
500 1 3.9809131250 -1.7992946875 -3.2091299920
501 1 5.0585603125 -1.6981909375 -3.1837958800
502 1 6.1848378125 -1.4688665625 -3.2403572640
503 1 6.1695996875 -2.0615006250 -2.4152242000
504 1 2.8116490625 -0.3591037500 -2.4255469440
505 1 2.8374625000 -1.4937528125 -2.4171281440
506 1 3.9181196875 -0.6914937500 -3.2893158240
507 1 3.8989443750 -1.2323934375 -2.4159754160
508 1 5.0407690625 -0.5357531250 -3.2233253840
509 1 5.0452168750 -1.1242618750 -2.4642604720
510 1 6.1423484375 -0.3827403125 -3.1935875920
511 1 6.1787909375 -0.9667609375 -2.3985679280
512 1 2.8124418750 1.3733259375 -3.2889272640
513 1 2.8044734375 0.2278059375 -3.1641865520
514 1 3.8833837500 0.3600981250 -3.2235973760
515 1 3.9837753125 -0.1787725000 -2.3814194800
516 1 5.0132893750 0.5558556250 -3.3068269280
517 1 5.0494900000 0.0395600000 -2.4207676560
518 1 6.1525609375 0.7980262500 -3.2292185440
519 1 6.1576940625 0.2056340625 -2.4686123440
520 1 3.9485018750 1.5237990625 -3.1932508400
521 1 3.9199068750 0.9348737500 -2.4403251760
522 1 5.0240931250 1.6402618750 -3.2060474160
523 1 5.0561012500 1.0768006250 -2.3943714800
524 1 6.1234553125 1.8851468750 -3.2886034640
525 1 6.1450628125 1.3459000000 -2.4163121680
526 1 2.8187306250 1.9215087500 -5.7111442488
527 1 3.3345828125 1.9956031250 -4.7866835920
528 1 3.8567371875 2.0742662500 -5.6666748520
529 1 4.4280593750 2.1864425000 -4.8939909120
530 1 3.8664121875 2.1176693750 -2.4411800080
531 1 2.7814550000 0.8453531250 -2.4419053200
532 1 2.8172121875 1.9168728125 -2.4213764000
533 1 5.1021784375 -0.5956843750 -6.4484385326
534 1 5.0027275000 2.2278165625 -2.4563727040
535 1 3.9546293750 -1.9848800000 -6.4466025866
536 1 3.9553550000 -0.7749540625 -6.4666267930
537 1 3.8757109375 0.4155815625 -6.4644626174
538 1 5.0444912500 0.5621712500 -6.4727271073
539 1 4.9751403125 1.7110506250 -6.4656136099
540 1 -3.9557581250 3.1350896875 -3.2222633200
541 1 -6.7126283453 2.5213184375 -4.8066685280
542 1 -6.1907153750 2.6148165625 -5.6884290312
543 1 -5.6298838438 2.6595903125 -4.8773087360
544 1 -5.0645937500 3.2251612500 -6.4586962575
545 1 -5.6148230938 3.1980712500 -4.0290045440
546 1 -5.0357971875 2.6851484375 -5.6458687592
547 1 -4.4652006250 2.6352953125 -4.8788629760
548 1 -4.5152015625 3.1829943750 -4.0418529280
549 1 -3.8805618750 2.5974687500 -5.6646154840
550 1 -3.3319893750 2.4591700000 -4.8279357120
551 1 -2.8076312500 2.3901146875 -5.6986857200
552 1 -6.7100041359 3.6560481250 -4.9032515920
553 1 -6.1141619375 3.7702400000 -5.6540596040
554 1 -5.5706849375 3.7558484375 -4.8352794960
555 1 -5.6473015313 4.3449215625 -4.0694665920
556 1 -5.0233675000 3.8109018750 -5.6859526088
557 1 -4.4786515625 3.7618415625 -4.8277155280
558 1 -4.5033093750 4.3130343750 -4.0094988320
559 1 -3.9422937500 3.6844146875 -5.6782694824
560 1 -3.3910875000 3.5901775000 -4.8288034960
561 1 -3.3179875000 4.1458584375 -4.0261421520
562 1 -2.8439796875 3.5283650000 -5.6766453016
563 1 -6.2112680313 4.8697768750 -5.6415078208
564 1 -5.6298919063 4.9104253125 -4.8547074960
565 1 -5.5781266250 5.4526015625 -4.0254038880
566 1 -5.0815518750 4.8957381250 -5.6521129184
567 1 -4.5074481250 4.8679896875 -4.8421181520
568 1 -3.9250803125 5.9523690625 -5.5944609760
569 1 -4.4552434375 5.4413946875 -4.0496629840
570 1 -3.9675025000 4.8256750000 -5.6884795440
571 1 -3.4249500000 4.6973737500 -4.8546297840
572 1 -3.3487728125 5.2886237500 -4.1039189120
573 1 -2.8320203125 4.6342309375 -5.6097896680
574 1 -6.1772953438 5.9620171875 -5.6979979688
575 1 -5.6475783438 6.0306693750 -4.8279616160
576 1 -5.5897084063 6.5769440625 -3.9981658320
577 1 -5.0852740625 6.0182128125 -5.6528356400
578 1 -4.5285450000 5.9930309375 -4.8661441120
579 1 -5.0339696875 6.5730875000 -6.4533237679
580 1 -4.4708309375 6.5693787500 -4.0903970240
581 1 -3.3270981250 5.8571778125 -4.8696152480
582 1 -3.4229478125 6.4275728125 -4.0566182080
583 1 -2.7635965625 5.7109643750 -5.6457755048
584 1 -6.1940411563 3.1644237500 -3.2696028800
585 1 -6.1622977500 2.6311834375 -2.3950449840
586 1 -5.0617584375 3.2466612500 -3.2082492560
587 1 -5.0489390625 2.6663896875 -2.4352220880
588 1 -3.8918896875 2.5647081250 -2.4334088080
589 1 -3.3981690625 3.0198093750 -4.0177622080
590 1 -2.7904715625 2.9730871875 -3.2903778880
591 1 -6.1653843438 4.2669706250 -3.1938725360
592 1 -6.1578996563 3.6872365625 -2.4002128320
593 1 -5.0823312500 4.3494768750 -3.2535294480
594 1 -5.0302206250 3.8084831250 -2.4099138800
595 1 -3.9066171875 4.2732996875 -3.2812467280
596 1 -3.9111725000 3.7258693750 -2.4689490960
597 1 -2.7386834375 4.0845028125 -3.2459525280
598 1 -2.8623353125 3.5298296875 -2.4504665920
599 1 -6.1544959375 5.4196393750 -3.2328710080
600 1 -6.1806050000 4.8605184375 -2.4476042000
601 1 -5.0093253125 5.4797184375 -3.2332077600
602 1 -5.0308118750 4.9131800000 -2.4407266880
603 1 -3.8861921875 5.3783728125 -3.2401888880
604 1 -3.9792468750 4.8112565625 -2.4291476000
605 1 -2.8372071875 5.1583203125 -3.1897538000
606 1 -2.8550387500 4.6173803125 -2.3600357280
607 1 -6.1959425625 6.5396684375 -3.2938619760
608 1 -6.1762337813 6.0044796875 -2.4429803360
609 1 -5.0074843750 6.6043968750 -3.2242061200
610 1 -5.1118400000 6.0383959375 -2.4330591040
611 1 -3.9676368750 6.4597153125 -3.1798196160
612 1 -3.9318125000 5.8972753125 -2.3602818160
613 1 -2.8739453125 6.2870971875 -3.2416395120
614 1 -2.7371112500 5.7416556250 -2.4198610160
615 1 -2.2665300000 2.2856112500 -4.8028994960
616 1 -2.3130371875 3.3846912500 -4.8467808720
617 1 -2.2893603125 5.1391315625 -4.0701660000
618 1 -2.2815934375 6.2282275000 -3.9638300800
619 1 -2.7727743750 2.4281025000 -2.4642993280
620 1 -2.2401118750 4.5719481250 -4.8685272800
621 1 -6.7154214641 4.2073484375 -4.0572140000
622 1 -6.7142119950 5.3170306250 -4.0088382800
623 1 -6.6985117813 5.8832062500 -4.8012286880
624 1 -6.1973682813 3.1953568750 -6.4485607994
625 1 -3.8955581250 4.2448525000 -6.4648591041
626 1 -2.7804606250 4.0897568750 -6.4596953748
627 1 -6.2082311563 6.5213396875 -6.4508727314
628 1 -2.8691212500 6.2802575000 -6.4452033820
629 1 -5.0175759375 5.4600996875 -6.4617393299
630 1 -3.9125968750 5.4123831250 -6.4307163110
631 1 -1.7601243750 6.6809906250 -2.4165194000
632 1 -1.7365818750 2.2412943750 -2.4643640880
633 1 -1.1939353125 6.5910668750 -4.8447733120