ITEM: TIMESTEP
143000
ITEM: NUMBER OF ATOMS
2304
ITEM: BOX BOUNDS pp pp pp
-6.7187500000 6.7187500000
-6.7187500000 6.7187500000
-6.4760000000 6.4760000000
ITEM: ATOMS id type x y z
1 1 -6.6649548500 -6.0111809688 -4.8260447200
2 1 -5.5414059688 -6.4380984063 -4.0216348560
3 1 -5.0274793750 -5.7809724063 -5.6461938544
4 1 -3.8350356250 -5.6429571875 -5.6508630504
5 1 -4.4475168750 -6.1906602813 -4.0408167680
6 1 -3.3055578125 -6.0905468750 -4.0482641680
7 1 -2.7818446875 -6.5991804375 -5.6167099216
8 1 -6.1321345938 -5.9345563125 -5.6991403352
9 1 -5.5862522813 -5.8804609688 -4.8457188080
10 1 -5.5513120938 -4.7523331250 -4.8077694480
11 1 -4.4408787500 -5.6616285938 -4.9023838080
12 1 -4.3936593750 -5.1399915625 -4.0164281520
13 1 -3.8436759375 -5.0799528125 -3.1780322400
14 1 -3.3042946875 -5.5240944375 -4.8419368240
15 1 -2.7331068750 -5.4716545938 -5.6831679288
16 1 -6.6848806469 -4.3353406250 -4.0441065760
17 1 -6.6498554000 -4.8954962500 -4.8657037440
18 1 -4.5082946875 -4.5843106250 -4.8465995440
19 1 -5.6079135313 -4.1693337500 -4.0377989520
20 1 -3.9570212500 -4.4953946875 -5.6642100864
21 1 -3.8924137500 -5.0688400000 -6.4365036531
22 1 -4.4446412500 -4.0371490625 -4.0262457680
23 1 -3.3715225000 -4.4267962500 -4.9141442240
24 1 -3.3474156250 -4.9352712500 -4.0481346480
25 1 -3.9058512500 -3.8897262500 -3.2302158480
26 1 -2.7372053125 -4.4000825000 -5.5918252440
27 1 -6.1481252188 -3.7053100000 -5.6221083152
28 1 -6.6717265438 -3.2122612500 -4.0510229440
29 1 -5.5593799688 -3.6400037500 -4.8970734880
30 1 -6.0944948125 -4.8304990625 -5.6766077408
31 1 -5.5530226875 -3.0933393750 -4.0586905280
32 1 -4.9746431250 -3.5352450000 -5.6612479640
33 1 -4.4347915625 -3.4672646875 -4.8254359760
34 1 -4.4960128125 -2.8978775000 -4.0339651600
35 1 -3.9070606250 -3.3606650000 -5.7185566784
36 1 -3.3817753125 -3.3352412500 -4.8272233520
37 1 -3.3422556250 -2.7816968750 -4.0274503040
38 1 -2.8214181250 -3.2563900000 -5.6373890848
39 1 -6.6773091531 -6.5734368750 -4.0305069760
40 1 -6.1196256250 -6.4813671563 -3.2264209120
41 1 -4.9783115625 -6.3648922500 -3.1947791760
42 1 -3.8521550000 -6.2346277813 -3.2517809280
43 1 -2.6708375000 -6.0255496875 -3.4260759920
44 1 -2.7844918750 -6.5210521250 -2.4365820480
45 1 -6.1393303750 -5.3858601875 -3.2729963040
46 1 -6.1160136250 -5.9179583125 -2.4093958000
47 1 -5.5578010625 -5.3337603125 -4.0391071040
48 1 -5.0077128125 -5.7607489688 -2.4802950480
49 1 -4.9992203125 -5.1786109375 -3.2536719200
50 1 -3.8701075000 -5.6761505000 -2.4675373280
51 1 -2.7739971875 -4.4489681250 -2.4507644880
52 1 -6.1496114063 -4.2772368750 -3.2015142160
53 1 -6.1226248750 -4.8515287500 -2.4183715360
54 1 -5.0335531250 -4.0956962500 -3.2500194560
55 1 -5.0072693750 -4.6529359375 -2.4044481360
56 1 -3.9040237500 -4.4647437500 -2.4722389040
57 1 -3.2976834375 -3.9110784375 -4.0140579360
58 1 -6.1290291875 -3.1145975000 -3.2427792880
59 1 -6.1468795625 -3.6965353125 -2.4478114320
60 1 -5.0238378125 -2.9617728125 -3.1839772080
61 1 -5.0221581250 -3.5534931250 -2.4224255120
62 1 -3.9075981250 -2.8093243750 -3.2373653520
63 1 -3.8872671875 -3.3465018750 -2.3876105360
64 1 -2.7854996875 -2.6649384375 -3.2388289280
65 1 -2.7656793750 -3.8428428125 -3.1743150160
66 1 -2.7446765625 -4.9972853125 -3.2504598240
67 1 -2.2427590625 -3.1297684375 -4.8763891440
68 1 -6.7086172784 -2.6363434375 -4.8103728000
69 1 -6.1609002500 -2.6033140625 -5.6645597904
70 1 -5.6030034688 -2.5079750000 -4.8356810080
71 1 -5.0477431250 -2.4043987500 -5.6293705016
72 1 -4.4429615625 -2.3605521875 -4.8929029440
73 1 -6.1365340313 -2.6004787500 -2.3804480800
74 1 -5.0416290625 -2.3721756250 -2.4418405600
75 1 -3.9221106250 -2.2424096875 -2.4430969040
76 1 -2.7762009375 -5.5365926563 -2.3815360480
77 1 -2.7590009375 -3.2319068750 -2.4578880880
78 1 -5.0496109375 -4.6587409375 -5.7281010072
79 1 -2.2482953125 -3.6868871875 -4.0488211040
80 1 -3.3878490625 -6.6791947031 -4.8464829760
81 1 -2.7564478125 -6.0473614375 -6.4461372212
82 1 -3.8408809375 -3.9490796875 -6.4694277278
83 1 -2.7541500000 -3.8356268750 -6.4250174310
84 1 -5.0524596875 -2.9561559375 -6.4522693456
85 1 -2.7460471875 -2.7203143750 -6.4630604339
86 1 -5.0272509375 -6.3479368125 -6.4545060265
87 1 -2.2227640625 -5.4936101250 -4.6997756720
88 1 -1.6524228125 -4.6905340625 -3.2281435280
89 1 -1.0787221875 -5.2374268750 -4.9222133200
90 1 -2.2043815625 -4.8634881250 -4.0868870320
91 1 -2.2228984375 -6.4182256875 -4.7687580240
92 1 -1.6148112500 -5.8447494688 -6.4144928948
93 1 -1.6753471875 -6.4328201563 -5.6555944160
94 1 -1.1080159375 -6.3594661875 -4.8424549040
95 1 -1.2052631250 -5.7778737188 -4.0291858720
96 1 -0.5710265625 -6.2989826563 -5.6844683096
97 1 -0.0484287500 -6.2973795625 -4.7939108080
98 1 -0.0380012500 -5.6983438750 -4.0704120880
99 1 1.1149228125 -6.3438047813 -4.8638386560
100 1 0.5050081250 -6.3547173750 -5.6112040264
101 1 1.1118590625 -5.8145352500 -3.9974923280
102 1 1.6747828125 -6.5430412500 -5.6604164456
103 1 -1.7086050000 -5.2674865625 -5.6241819304
104 1 -0.4939625000 -5.1998153125 -5.6104010024
105 1 -0.5708787500 -4.0607990625 -5.6749783792
106 1 -1.0682140625 -4.7012303125 -4.0772766480
107 1 0.0980265625 -5.1312437500 -4.8337123040
108 1 0.0154396875 -4.5852378125 -4.0120762800
109 1 0.5937225000 -5.2713162500 -5.7010002424
110 1 1.1699762500 -5.2853181250 -4.8569740960
111 1 1.1600190625 -4.7403871875 -3.9781549920
112 1 -2.1871815625 -4.2642159375 -4.8120306560
113 1 -1.6348062500 -4.1855125000 -5.6560192416
114 1 -1.0880209375 -4.1046187500 -4.7862691280
115 1 -0.5150459375 -3.4930512500 -6.4548983426
116 1 -1.1106093750 -3.5009659375 -4.0445080880
117 1 0.0099706250 -4.0526425000 -4.8996379840
118 1 1.1169921875 -3.6830978125 -4.0716425280
119 1 0.0485093750 -3.5240112500 -4.0059758880
120 1 0.5652887500 -4.6479640625 -6.4204391580
121 1 0.5943406250 -4.0693453125 -5.6846457520
122 1 1.1313837500 -3.0861771875 -4.8278839040
123 1 1.1418246875 -4.2354193750 -4.8841085360
124 1 -2.1965071875 -2.5979390625 -4.0272171680
125 1 -1.6421162500 -3.1015496875 -5.6190633000
126 1 -1.0834925000 -2.9633718750 -4.8396702240
127 1 -0.5841953125 -2.3188018750 -6.4592197774
128 1 -1.1200021875 -2.3722831250 -4.0233186160
129 1 -0.5307543750 -2.9072031250 -5.6995457328
130 1 -0.0059393750 -2.9801553125 -4.8511456960
131 1 0.5766165625 -2.9210975000 -5.6382490976
132 1 1.1333053125 -2.5121943750 -4.0658011760
133 1 1.6748903125 -2.6070631250 -3.2655489040
134 1 1.6804937500 -3.1686431250 -5.6373851992
135 1 -1.7485009375 -5.8371975938 -3.3211906960
136 1 -1.6507028125 -6.3591987813 -2.4489900640
137 1 -0.5637568750 -5.7630588750 -3.2513017040
138 1 -0.6074959375 -6.3300394063 -2.4501686960
139 1 0.5253793750 -5.8281004063 -3.2291149280
140 1 0.5306334375 -6.3664993750 -2.3889445920
141 1 1.6787737500 -5.9460856875 -3.2049853520
142 1 1.7241118750 -6.5237450000 -2.4363359600
143 1 -1.6469806250 -5.2760328125 -2.4401179440
144 1 -0.5763746875 -4.6129325000 -3.2153210480
145 1 -0.5393275000 -5.2040481250 -2.4612038000
146 1 0.5740500000 -4.6984487500 -3.2198542480
147 1 0.6066493750 -5.2537803125 -2.4298081520
148 1 1.7580818750 -4.7606912500 -3.2122643760
149 1 1.7037809375 -5.3641021875 -2.4741169440
150 1 -1.6634818750 -3.6693781250 -3.2574150480
151 1 -1.6532021875 -4.1735262500 -2.3394550000
152 1 -0.5491368750 -3.4965450000 -3.2558219520
153 1 -0.5076821875 -4.0474556250 -2.4150817280
154 1 0.6023359375 -3.4795868750 -3.1874094880
155 1 0.5865737500 -4.0914500000 -2.4986868880
156 1 1.6954496875 -3.6497593750 -3.2388418800
157 1 1.7052456250 -4.2119575000 -2.4121545760
158 1 -1.6436750000 -3.0959328125 -2.4491972960
159 1 -0.0020828125 -2.3958659375 -4.0671222800
160 1 -0.5706637500 -2.9536431250 -2.4236559520
161 1 0.5795325000 -2.3958659375 -3.2445148560
162 1 0.5462746875 -2.9258275000 -2.3881415680
163 1 1.7172990625 -5.3498450000 -5.7151321696
164 1 -1.6652287500 -2.5064700000 -3.1979783200
165 1 -0.5252315625 -2.3758843750 -3.2357074960
166 1 1.7236953125 -3.1108350000 -2.3760573520
167 1 1.7470765625 -4.2289559375 -5.6294805936
168 1 0.6128709375 -3.4951340625 -6.4500360322
169 1 1.7013890625 -5.9677254375 -6.4010301974
170 1 2.2360268750 -5.5362862813 -4.8553810000
171 1 -0.5280803125 -4.6527075000 -6.4478203336
172 1 1.6925337500 -4.7552356250 -6.4649123368
173 1 -1.6560778125 -2.5400100000 -6.4346934816
174 1 1.7198790625 -2.6171143750 -6.4679295699
175 1 6.7016575000 -5.4387864688 -4.0403504960
176 1 2.2401253125 -3.7610621875 -4.0821206960
177 1 2.2967106250 -2.6252037500 -4.0231372880
178 1 6.2127340625 -6.0305175313 -5.6559829760
179 1 6.2125593750 -4.8897853125 -5.6332716440
180 1 6.7095721875 -3.7733037500 -4.8552255760
181 1 2.2689621875 -6.5832556563 -4.8925273360
182 1 2.2514665625 -6.0553137500 -3.9885554480
183 1 2.8466671875 -6.6370674688 -5.7024793608
184 1 3.3558812500 -6.2718093438 -4.0590143280
185 1 4.4931103125 -6.3925546875 -4.0700882880
186 1 5.6352575000 -6.5099944063 -4.0363483280
187 1 2.8207193750 -4.4854375000 -5.6445165704
188 1 2.8287146875 -6.0548515000 -6.4536571524
189 1 2.8432943750 -5.5104190938 -5.6262672024
190 1 3.3883193750 -5.0878271875 -4.0786754640
191 1 3.9395390625 -5.7566545625 -5.6344334384
192 1 4.5049890625 -5.8005562188 -4.8185714160
193 1 5.0503903125 -4.7995121875 -5.6483283440
194 1 4.5528937500 -5.2391603125 -4.0229171040
195 1 5.0442493750 -5.9621945625 -5.6535557712
196 1 5.6278668750 -5.9734256250 -4.8828262880
197 1 5.6389796875 -5.4257588125 -4.0318410320
198 1 2.2863100000 -4.3608853125 -4.7895330320
199 1 2.8004421875 -3.8631200000 -3.2899504720
200 1 3.3900931250 -4.4840400000 -4.8064872000
201 1 3.3851078125 -5.6804639375 -4.8041040320
202 1 3.4249903125 -3.9214790625 -3.9978290800
203 1 3.9120190625 -4.6628528125 -5.6715214904
204 1 4.4802909375 -4.6940009375 -4.8644862560
205 1 4.5144221875 -4.1376212500 -4.0393661440
206 1 5.6275846875 -4.8757296875 -4.8816606080
207 1 5.0331903125 -3.1106603125 -6.4594412566
208 1 5.6203418750 -4.3380818750 -4.0542350400
209 1 2.2555246875 -3.1570465625 -4.8213560960
210 1 2.7758246875 -3.3651531250 -5.6612168792
211 1 3.3588375000 -3.4076693750 -4.8976563280
212 1 3.3913562500 -2.8663262500 -4.0765513360
213 1 4.5414450000 -3.5876109375 -4.8617015760
214 1 4.5106596875 -2.4516315625 -4.8222368320
215 1 5.0292396875 -2.5496715625 -5.6820708944
216 1 5.6447443750 -3.7459046875 -4.8094402560
217 1 6.1634184375 -3.7792028125 -5.6975796192
218 1 5.5965306250 -3.1695703125 -4.0051858160
219 1 2.8388196875 -6.0406574688 -3.2149972480
220 1 2.8510612500 -6.6362174125 -2.4727958400
221 1 3.9460965625 -6.2623547188 -3.2543195200
222 1 5.0629275000 -6.5082475313 -3.2492423360
223 1 6.1904143750 -6.6050339469 -3.2281435280
224 1 2.2639365625 -4.9677900000 -4.0676274080
225 1 2.8271021875 -5.4826128750 -2.4142787040
226 1 3.9411650000 -5.2216512500 -3.2757550800
227 1 3.9579081250 -5.7166135000 -2.3679882560
228 1 5.0853278125 -5.3921274375 -3.1950382160
229 1 5.0400568750 -5.9677496250 -2.4165453040
230 1 6.1947412500 -5.4768925313 -3.1694709680
231 1 6.1788715625 -6.0527821250 -2.4105355760
232 1 2.8476884375 -4.3941968750 -2.3784016640
233 1 2.8337403125 -4.9321537500 -3.2529725120
234 1 3.9714128125 -4.1104237500 -3.1995973200
235 1 3.9205921875 -4.6695984375 -2.4237077600
236 1 5.0701165625 -4.2476878125 -3.2051666800
237 1 5.0394521875 -4.8161343750 -2.4176203200
238 1 6.1703387500 -4.3265793750 -3.2459395760
239 1 6.1805109375 -4.8713759375 -2.4329425360
240 1 2.8421925000 -2.7204487500 -3.1966054080
241 1 2.8046078125 -3.3409521875 -2.4479539040
242 1 6.1904546875 -3.2356425000 -3.2698748720
243 1 3.8989981250 -3.5064484375 -2.4598826960
244 1 4.4618412500 -3.0299546875 -4.0415420800
245 1 5.0832584375 -3.6823990625 -2.3883876560
246 1 5.0363884375 -3.1493468750 -3.2205277520
247 1 6.2034084375 -3.7692993750 -2.4055620080
248 1 3.4057343750 -2.2684650000 -4.8317047440
249 1 3.9595743750 -3.5006568750 -5.6189156472
250 1 5.6012471875 -2.6502378125 -4.8674911200
251 1 6.1813171875 -2.6638365625 -5.6468492256
252 1 3.9517940625 -2.9262843750 -3.1852724080
253 1 5.0748062500 -2.5654337500 -2.4524093920
254 1 6.1739668750 -2.7008568750 -2.4258318880
255 1 3.9718159375 -2.3502321875 -2.3790751680
256 1 6.1745715625 -6.5772275938 -6.4688820730
257 1 2.8519884375 -3.9133762500 -6.4666697807
258 1 3.9415546875 -4.0614978125 -6.4193717837
259 1 5.0979187500 -3.6876531250 -5.6739150200
260 1 3.9460293750 -2.4050168750 -5.6657876400
261 1 5.0322900000 -4.2512084375 -6.4673507192
262 1 6.1654609375 -5.4489129688 -6.4483897035
263 1 5.1006062500 -5.3821205313 -6.4262144548
264 1 2.8137453125 -2.7723712500 -6.4275070644
265 1 -3.3127334375 -2.2093668750 -4.8325984320
266 1 -5.5928917500 -1.9523746875 -4.0441324800
267 1 -4.4380031250 -1.8293006250 -4.0501163040
268 1 -3.8700940625 -2.2384321875 -5.6514497760
269 1 -2.8160834375 -1.5189346875 -6.4380278445
270 1 -3.3543493750 -1.6448440625 -4.0325663440
271 1 -2.7884156250 -2.1186368750 -5.7112685880
272 1 -6.7023554438 -1.5035890625 -4.8802358880
273 1 -6.1931475625 -0.9161284375 -6.4238492901
274 1 -6.7169143300 -0.9529606250 -4.0370218320
275 1 -6.1279165625 -1.4990203125 -5.6821835768
276 1 -5.5984723438 -1.3704637500 -4.8202163200
277 1 -5.6514174375 -0.7877868750 -4.0406742960
278 1 -5.0424756250 -1.3219812500 -5.6851793744
279 1 -4.5127559375 -1.2391928125 -4.7985476240
280 1 -4.4998425000 -0.6509796875 -4.0671999920
281 1 -3.9626650000 -1.1227165625 -5.6200178624
282 1 -3.3603156250 -1.1067662500 -4.8820103120
283 1 -2.8122000000 -0.3841781250 -6.4588704619
284 1 -3.3404146875 -0.5648856250 -4.0546883600
285 1 -2.8008318750 -0.9484859375 -5.6558301424
286 1 -6.6792026313 0.1451250000 -4.0296132880
287 1 -6.1989794375 -0.3290306250 -5.6461148472
288 1 -5.5991684063 -0.2779412500 -4.9281064800
289 1 -5.0570553125 0.3620465625 -6.4200970957
290 1 -5.5787608750 0.2609159375 -4.0584314880
291 1 -4.9962775000 -0.2223771875 -5.6537889072
292 1 -4.4552165625 -0.0647553125 -4.8308369600
293 1 -4.5387171875 0.5097246875 -4.0577968400
294 1 -3.9006509375 -0.0515462500 -5.6725965064
295 1 -3.3677734375 0.0418712500 -4.7896236960
296 1 -3.4111362500 0.6380528125 -4.0745696800
297 1 -2.8412921875 0.1792831250 -5.6477157144
298 1 -6.2180741250 0.8002568750 -5.6948739464
299 1 -5.6687880938 0.8262181250 -4.8619735680
300 1 -5.5641140000 1.3691737500 -4.0276316320
301 1 -5.1065993750 0.9469943750 -5.6528408208
302 1 -4.5091950000 1.0321343750 -4.9397632800
303 1 -3.9109978125 1.6379506250 -6.4074154039
304 1 -4.4268096875 1.5561028125 -4.0377212400
305 1 -3.8933275000 1.0566712500 -5.6404056056
306 1 -3.3525487500 1.2232156250 -4.8424290000
307 1 -2.7652359375 1.2288056250 -5.6473232688
308 1 -6.1779322813 -2.0602240625 -3.2654193840
309 1 -5.0399628125 -1.8213725000 -3.2641371360
310 1 -3.9130000000 -1.6610093750 -3.2118240080
311 1 -2.7797350000 -1.5628887500 -3.2274441200
312 1 -2.7893562500 -2.1131543750 -2.4026478080
313 1 -6.1766637813 -0.9700934375 -3.1845211920
314 1 -6.1296110313 -1.5341056250 -2.4015468880
315 1 -5.0595278125 -0.7705600000 -3.2644609360
316 1 -5.0210965625 -1.3003603125 -2.3795155360
317 1 -3.9380340625 -0.5525500000 -3.2857281200
318 1 -3.9325246875 -1.0896468750 -2.4352350400
319 1 -2.8172525000 -0.3924959375 -3.2042082320
320 1 -2.8269946875 -0.9874278125 -2.4590926240
321 1 -6.1334044375 0.2392546875 -3.2081326880
322 1 -6.1846564063 -0.3654596875 -2.4828465920
323 1 -5.0404465625 0.3537287500 -3.1668028560
324 1 -5.0178043750 -0.2407193750 -2.4146284080
325 1 -3.9582843750 0.4798262500 -3.2515736960
326 1 -3.9006509375 -0.0347090625 -2.3609294160
327 1 -6.1616379688 1.3400278125 -3.3018015520
328 1 -6.2151756563 0.8035087500 -2.4296656800
329 1 -5.0123487500 1.5255996875 -3.2318737040
330 1 -5.0756125000 0.9551106250 -2.4456484480
331 1 -2.8152368750 1.7437037500 -3.2358629200
332 1 -3.9082968750 1.0356818750 -2.4204956640
333 1 -2.8519212500 0.7047296875 -3.2950017520
334 1 -2.7788078125 1.2354571875 -2.3576396080
335 1 -2.2415765625 1.3235265625 -4.7798449360
336 1 -2.2819965625 1.9331187500 -4.0824704000
337 1 -6.6635279219 1.8474009375 -4.8465606880
338 1 -6.1258807813 1.8893259375 -5.6904871040
339 1 -5.5923770938 1.9610418750 -4.7847019360
340 1 -5.0960912500 2.0785528125 -5.7182976384
341 1 -4.5450731250 2.1114881250 -4.8470528640
342 1 -3.3846509375 1.7999396875 -4.0526160400
343 1 -6.1519132500 1.8666568750 -2.4342118320
344 1 -5.0984293750 2.0946375000 -2.4355976960
345 1 -3.9071681250 1.6216912500 -3.1647175840
346 1 -2.8104665625 0.1883803125 -2.4296915840
347 1 -2.2486984375 -2.0273559375 -4.8368596400
348 1 -2.2574865625 -0.3888946875 -4.0293672000
349 1 -2.2542481250 0.1671356250 -4.8634112400
350 1 -2.2412271875 0.7189331250 -4.0531082160
351 1 -3.9995240625 2.2371959375 -5.6721418912
352 1 -3.9687925000 2.2332184375 -2.4648951200
353 1 -3.9276871875 -1.6527453125 -6.4597207607
354 1 -6.1148418750 0.2075825000 -6.4759329770
355 1 -2.8596881250 1.7920653125 -6.4587790208
356 1 1.7897137500 -1.4901784375 -3.2259416880
357 1 -1.7223784375 0.9092484375 -3.2272368880
358 1 -1.6535246875 -1.4175353125 -6.4580423110
359 1 -2.2213396875 -1.4713256250 -4.0271783120
360 1 -1.6886368750 -1.9596578125 -5.6470707048
361 1 -1.1042400000 -1.2977131250 -4.0598044000
362 1 -0.4961662500 -1.7934225000 -5.6089995960
363 1 -0.5642943750 -1.2538128125 -3.2148029680
364 1 -1.1063228125 -1.8638350000 -4.8870097840
365 1 0.0625246875 -1.8156884375 -4.8077694480
366 1 -0.0119728125 -1.2304315625 -4.0518000640
367 1 0.5979956250 -1.8755659375 -5.6572976040
368 1 1.1664421875 -1.9110812500 -4.7840284320
369 1 1.6792037500 -1.4565712500 -6.4202799779
370 1 1.1742896875 -1.3526456250 -3.9696066720
371 1 1.6670025000 -2.0596731250 -5.6799338144
372 1 -2.2195793750 -0.9316218750 -4.8783837520
373 1 -1.7102578125 -0.2503675000 -6.4589651410
374 1 -1.6644896875 -0.8295640625 -5.6959398960
375 1 -1.1290993750 -0.7230853125 -4.8299562240
376 1 -0.5799221875 -0.1524081250 -3.2487760640
377 1 -0.5691990625 -0.7156275000 -5.6435814360
378 1 0.0063425000 -0.6588406250 -4.8412762720
379 1 0.5572665625 -0.7457006250 -5.6511596512
380 1 0.0106156250 -0.1154953125 -4.0210390640
381 1 1.1153796875 -0.8455278125 -4.8534382000
382 1 1.1283871875 -0.2767184375 -4.0481735040
383 1 1.6954900000 -0.8874125000 -5.6368632336
384 1 -1.6993868750 0.3018062500 -5.6676514328
385 1 -1.1354015625 -0.1548671875 -4.0445339920
386 1 -0.5825290625 1.0151762500 -6.4299626341
387 1 -1.1313031250 0.3891365625 -4.8733454240
388 1 -0.5701396875 0.4147484375 -5.6948894888
389 1 -0.0346150000 0.4438540625 -4.8535418160
390 1 -0.0228168750 0.9960950000 -4.0500515440
391 1 0.5615800000 0.3859921875 -5.6253320680
392 1 1.1159306250 0.3003684375 -4.8200997520
393 1 1.6603375000 0.1933118750 -5.6542059616
394 1 1.0937990625 0.8857865625 -4.0758778320
395 1 -1.7059309375 1.4486700000 -5.6531374216
396 1 -1.1226359375 0.9299018750 -3.9929720800
397 1 -1.1232406250 1.4529431250 -4.8747183360
398 1 -0.5516496875 1.5870762500 -5.6555335416
399 1 0.0094331250 1.5649043750 -4.8561710720
400 1 0.5565543750 2.0209328125 -6.4509049819
401 1 -0.0241203125 2.0999990625 -4.0118431440
402 1 0.5705025000 1.4521100000 -5.6674843520
403 1 1.1230121875 1.4751956250 -4.8348132240
404 1 1.6532828125 1.3249509375 -5.7056266968
405 1 -1.6587250000 -1.3560318750 -3.2147770640
406 1 -0.5181096875 -0.6916146875 -2.4122711440
407 1 0.5649528125 -1.3249509375 -3.2749002480
408 1 0.6294662500 -1.8476025000 -2.3940994880
409 1 1.6309631250 -0.9247956250 -2.4030234160
410 1 -1.6949256250 -0.8085209375 -2.4036969200
411 1 -0.6139862500 0.4010556250 -2.4356495040
412 1 -0.5528590625 0.9932193750 -3.1928363760
413 1 0.5591881250 -0.1679150000 -3.2196599680
414 1 1.6662500000 -0.3361793750 -3.2062157920
415 1 -1.6863525000 1.4644859375 -2.4216354400
416 1 -1.6899268750 -0.2585240625 -3.2293998720
417 1 -0.5982778125 2.1655606250 -3.2151915280
418 1 -1.7094650000 0.3250128125 -2.4629134640
419 1 -0.5823275000 1.5786106250 -2.4582896000
420 1 0.5468256250 0.9176200000 -3.2231958640
421 1 1.6251043750 0.7740806250 -3.2447868480
422 1 1.6943612500 0.2154031250 -2.4248734400
423 1 -1.7230503125 2.0145500000 -3.2714420640
424 1 0.5415043750 2.0147918750 -3.2343993440
425 1 1.1157425000 2.0200862500 -4.0139672720
426 1 1.6891206250 1.3393559375 -2.4567871680
427 1 2.2191359375 -0.3904400000 -4.0671870400
428 1 2.2355028125 0.6845734375 -3.9913012720
429 1 2.1957412500 1.2074803125 -4.8881754640
430 1 1.6844175000 1.9208906250 -3.2238952720
431 1 -1.6444812500 -1.9304715625 -2.4363748160
432 1 -0.5031268750 -1.8284271875 -2.4319322800
433 1 1.6888518750 -2.0532903125 -2.4256894160
434 1 0.5690915625 -0.7643384375 -2.4522539680
435 1 0.5196818750 0.3653521875 -2.3816785200
436 1 0.5676806250 1.4818606250 -2.3985808800
437 1 -1.1358450000 2.0023084375 -4.0489765280
438 1 2.2295634375 -2.0618903125 -4.8751716560
439 1 -0.5431034375 -0.1558615625 -6.4585324147
440 1 0.5501446875 -1.3009112500 -6.4588816006
441 1 -1.6929771875 0.8833409375 -6.4561281350
442 1 1.6900478125 0.7439537500 -6.4702009233
443 1 1.6884218750 1.9335353125 -6.4257388574
444 1 0.5539340625 -0.1804925000 -6.4578164282
445 1 2.2428934375 -1.0007981250 -4.8263944240
446 1 2.2473950000 1.7405056250 -4.0166483360
447 1 2.8329609375 -2.2243496875 -5.6101937704
448 1 6.6803993750 -2.0470150000 -4.0596360240
449 1 6.6708721875 -0.4002090625 -4.8743168240
450 1 6.6950596875 0.7171593750 -4.8113571520
451 1 6.6642743750 1.3040153125 -4.0260644400
452 1 2.2431621875 0.1444665625 -4.8653281360
453 1 3.2544012500 -1.7162375000 -3.9451144400
454 1 4.4606050000 -1.9149915625 -3.9706169280
455 1 5.0842796875 -1.9487196875 -6.4254217924
456 1 6.1358850000 -2.0931728125 -6.4501077863
457 1 5.6053187500 -2.0879187500 -4.0183450480
458 1 2.7995284375 -0.5625071875 -6.4497333440
459 1 2.7590278125 -0.6325300000 -3.2202169040
460 1 2.8083165625 -1.1148018750 -5.6549299784
461 1 3.3689425000 -1.1857518750 -4.8358364320
462 1 3.9452500000 -0.6384156250 -6.4228365732
463 1 3.3451178125 -0.6056550000 -4.0087735200
464 1 3.8938381250 -1.2516896875 -5.7275881080
465 1 4.3942909375 -1.3795475000 -4.8264850880
466 1 4.4785709375 -0.8267690625 -4.0172052720
467 1 4.9872340625 -1.3736081250 -5.6293199888
468 1 5.5406440625 -1.5476506250 -4.8613907280
469 1 5.6078584375 -0.9977209375 -4.0836749360
470 1 6.1494165625 -1.5398837500 -5.6106639280
471 1 2.8241728125 0.6424200000 -6.4105416282
472 1 2.7716590625 0.0301806250 -5.7132191592
473 1 3.3250287500 -0.1210718750 -4.8985500160
474 1 3.9048434375 0.4755262500 -6.4644751679
475 1 3.3611353125 0.4259418750 -4.0185393280
476 1 3.9309793750 -0.0771715625 -5.6354514656
477 1 4.4719731250 -0.2821875000 -4.8404214400
478 1 4.4477721875 0.3125428125 -4.0914072800
479 1 6.0992812500 -0.4480062500 -5.6790802776
480 1 5.5966246875 -0.3689131250 -4.7773970080
481 1 5.5728403125 0.2151478125 -4.0422155840
482 1 2.7971500000 1.2337909375 -5.6683508408
483 1 3.3064581250 0.9777259375 -4.8463534560
484 1 3.3461525000 1.5548531250 -4.0864725680
485 1 3.9174746875 1.0309384375 -5.6091731528
486 1 4.4741903125 0.9028118750 -4.8143231600
487 1 5.0317256250 0.7608178125 -5.6419054472
488 1 4.4826828125 1.4895871875 -4.0699199120
489 1 5.0612746875 -0.2946440625 -5.6374719776
490 1 5.6136903125 0.7783000000 -4.8527258400
491 1 6.1119528125 1.2482900000 -6.4539617834
492 1 6.1249065625 1.2388300000 -3.2129637840
493 1 6.1603278125 0.6602918750 -5.6817406184
494 1 2.3265418750 -1.5515071875 -3.9427830800
495 1 2.7936293750 -2.1174409375 -2.5737696320
496 1 3.8008103125 -1.8165753125 -3.2590729040
497 1 5.0246843750 -1.9808890625 -3.2229238720
498 1 6.1700431250 -2.1059653125 -3.1883290800
499 1 2.8058575000 0.0088553125 -2.4946070080
500 1 2.8192815625 -1.1780925000 -2.5251607760
501 1 3.9259806250 -0.6887793750 -3.2253588480
502 1 3.9315168750 -1.2576828125 -2.4379549600
503 1 5.0624437500 -0.8299940625 -3.2369767920
504 1 4.9861321875 -1.4073362500 -2.4456484480
505 1 6.1381693750 -0.9667206250 -3.2301640400
506 1 6.1339634375 -1.5319287500 -2.4245755440
507 1 2.8236353125 1.7639540625 -3.2199060560
508 1 2.8090287500 0.5921637500 -3.2126270320
509 1 3.9507325000 0.4644806250 -3.2113577360
510 1 3.9036206250 -0.1209240625 -2.4499614640
511 1 5.0179521875 0.2345650000 -3.2568710640
512 1 5.0466681250 -0.2965521875 -2.3709413120
513 1 6.1614968750 0.1246731250 -3.2894194400
514 1 6.1415825000 -0.3922406250 -2.4115587840
515 1 3.9054212500 1.5335815625 -3.2693438400
516 1 3.9025456250 1.0106746875 -2.3831161920
517 1 5.5693465625 1.3460746875 -4.0368664080
518 1 5.0177103125 1.8782668750 -2.4151982960
519 1 6.1389487500 0.6633825000 -2.4337326080
520 1 3.3397696875 2.1755715625 -4.7808940480
521 1 3.8740984375 2.0786737500 -5.6400015032
522 1 4.4624862500 2.0719281250 -4.8417036880
523 1 5.0064631250 1.8992025000 -5.6427304896
524 1 5.6115134375 1.8733084375 -4.9062953120
525 1 6.2010971875 1.8021971875 -5.6383086768
526 1 3.8987562500 2.0663112500 -2.3760184960
527 1 5.0085862500 1.3207853125 -3.2181834400
528 1 6.1805243750 1.8060806250 -2.4353386560
529 1 2.7698181250 1.1884393750 -2.4514638960
530 1 5.0550262500 0.7668109375 -2.3892554400
531 1 5.0447465625 1.3266171875 -6.4348920358
532 1 2.7668887500 -1.6874678125 -6.4754265256
533 1 3.9282246875 -1.8477368750 -6.4609510712
534 1 -4.4594762500 6.6480284375 -4.8080414400
535 1 -3.8923868750 6.6691925000 -2.3576266560
536 1 -5.5818165625 6.4623087500 -4.8839919680
537 1 -4.9894243750 6.5233687500 -5.6553522136
538 1 -3.9082162500 6.7050840625 -5.6841833656
539 1 -5.0137462500 6.4823978125 -2.4425658720
540 1 -6.1543172188 6.3766043750 -5.6495950496
541 1 -3.9026396875 2.8115146875 -3.2341144000
542 1 -6.2226442188 2.4614946875 -6.4716844066
543 1 -6.2135456875 2.4395646875 -3.2277808720
544 1 -5.6551342500 2.5482203125 -4.0279813360
545 1 -4.4506343750 2.6694534375 -4.0297816640
546 1 -3.4144821875 2.3219731250 -4.9311890560
547 1 -2.7566225000 2.9236640625 -6.3878945381
548 1 -2.7871121875 2.3325887500 -5.6238607208
549 1 -6.7104819063 3.5111381250 -4.0507768560
550 1 -6.1424881875 3.0122440625 -5.6255949936
551 1 -5.5621158438 3.0905443750 -4.8741225440
552 1 -5.0855831250 3.7280596875 -6.4217306019
553 1 -5.6189685625 3.6447471875 -4.0542350400
554 1 -4.9733262500 3.1629993750 -5.6485783176
555 1 -4.4545043750 3.2535412500 -4.7890149520
556 1 -4.5332346875 3.8337725000 -4.0324368240
557 1 -3.9330084375 3.3714553125 -5.7099979968
558 1 -3.3896765625 3.3784965625 -4.8262908080
559 1 -3.3652740625 3.9406006250 -4.0182155280
560 1 -2.8644315625 3.5365215625 -5.6888758752
561 1 -6.6873758563 4.6666825000 -4.0526937520
562 1 -6.1844669375 4.1466378125 -5.6870043112
563 1 -5.6122336875 4.1979421875 -4.8785650800
564 1 -5.5747551563 4.7653406250 -4.0730542960
565 1 -5.0376650000 4.3095675000 -5.6258268344
566 1 -4.4349393750 4.3751156250 -4.8929806560
567 1 -3.9199875000 5.5818434375 -5.6240290968
568 1 -4.4863109375 4.9201540625 -4.0544811280
569 1 -3.8472906250 4.4532546875 -5.6318326768
570 1 -3.3095353125 4.5166393750 -4.7921881920
571 1 -3.4115796875 5.0898293750 -4.0402986880
572 1 -2.7923125000 4.6647071875 -5.6988851808
573 1 -6.7155416894 5.2162359375 -4.8659239280
574 1 -6.6895560906 5.7704790625 -4.0223342640
575 1 -6.1475957813 5.2330731250 -5.6771063928
576 1 -5.5963263750 5.3468753125 -4.8262130960
577 1 -5.6192117813 5.9246071875 -4.0329290000
578 1 -5.0589768750 5.4425637500 -5.6744033104
579 1 -4.4858943750 5.4948625000 -4.8462757440
580 1 -4.4812315625 6.0631075000 -4.0569290560
581 1 -3.8798900000 6.1336678125 -6.4459065461
582 1 -3.3221531250 5.6420300000 -4.8805467360
583 1 -2.8135437500 6.2887500000 -6.4444024303
584 1 -3.3411268750 6.1747193750 -4.0672518000
585 1 -2.7218731250 5.7518278125 -5.6051748704
586 1 -6.1282981875 3.0081053125 -2.4223996080
587 1 -5.0508068750 2.6171815625 -3.3033169360
588 1 -3.3023731250 2.8347078125 -4.0015463040
589 1 -2.7675471875 2.9171334375 -3.1610262640
590 1 -6.1737263438 3.5847756250 -3.2105158560
591 1 -5.0776818750 3.7382318750 -3.2002967280
592 1 -5.0303953125 3.1597475000 -2.4416592320
593 1 -3.9504637500 3.9211565625 -3.2630621200
594 1 -3.9466743750 3.3689559375 -2.4290310320
595 1 -2.7916003125 4.0966368750 -3.2483486480
596 1 -2.8341837500 3.5304478125 -2.4611778960
597 1 -6.1163791250 4.6677440625 -3.2300474720
598 1 -6.1716999688 4.1204884375 -2.3585980560
599 1 -5.0511831250 4.8697231250 -3.2094926480
600 1 -5.0081696875 4.3133300000 -2.4034119760
601 1 -3.9439600000 5.0617315625 -3.1988590560
602 1 -3.8969287500 4.4747546875 -2.4417498960
603 1 -2.8116759375 5.1809221875 -3.2660410800
604 1 -2.8101978125 4.6474131250 -2.4135145360
605 1 -6.1481413438 6.3810253125 -2.4614887440
606 1 -6.1354536563 5.7699146875 -3.1791461120
607 1 -5.0209084375 5.9281950000 -3.2461079520
608 1 -5.0139343750 5.4088625000 -2.3463325120
609 1 -3.8983800000 6.1664687500 -3.2681652080
610 1 -3.9054078125 5.6171168750 -2.4059376160
611 1 -2.8094990625 6.3003331250 -3.1754677440
612 1 -2.7855534375 5.7434159375 -2.4346133440
613 1 -2.2499884375 3.0868759375 -4.0393272880
614 1 -2.2877209375 3.6110190625 -4.9135872880
615 1 -2.8079403125 2.3217581250 -2.4367763280
616 1 -6.1649489688 5.2086034375 -2.3915090880
617 1 -4.9783384375 4.8635956250 -6.4288802354
618 1 -3.9339759375 5.0194437500 -6.4345841667
619 1 -2.2620553125 4.6831568750 -4.7978482160
620 1 -2.2735981250 6.4756521875 -4.0512301760
621 1 -6.1189188125 3.5539768750 -6.4635619224
622 1 -6.1501811563 5.8240006250 -6.4630810406
623 1 2.2149165625 2.3020318750 -4.8338418240
624 1 -2.2339306250 5.2933000000 -4.0280331440
625 1 1.0917565625 2.5572503125 -4.9038862400
626 1 -2.2372765625 2.5202300000 -4.8465865920
627 1 -1.7118031250 3.0634543750 -6.4579851927
628 1 -1.6425596875 2.5083378125 -5.6201240688
629 1 -1.0988515625 2.6012178125 -4.7758298160
630 1 -0.5848806250 4.3331906250 -6.4417777075
631 1 -1.1558131250 3.2112265625 -4.0793489680
632 1 -0.5807418750 2.6891393750 -5.6584568080
633 1 0.0018140625 2.6526028125 -4.8484257760