ITEM: TIMESTEP
17000
ITEM: NUMBER OF ATOMS
2304
ITEM: BOX BOUNDS pp pp pp
-6.7187500000 6.7187500000
-6.7187500000 6.7187500000
-6.4760000000 6.4760000000
ITEM: ATOMS id type x y z
1 1 -6.1423672500 -6.1168776563 -6.4462761962
2 1 -6.6665286500 -6.0188658750 -4.0053541920
3 1 -5.5711592813 -6.2104496875 -4.0595324080
4 1 -3.9145990625 -6.4495995625 -6.4727143884
5 1 -4.4936478125 -6.3748494375 -4.0881563280
6 1 -3.3768034375 -6.5468803438 -4.0482512160
7 1 -6.7082547347 -4.9345725000 -4.0481216960
8 1 -6.1636495625 -5.5330196250 -5.6817950168
9 1 -5.6095085625 -5.6475608750 -4.8748608080
10 1 -5.0497453125 -5.1372368750 -6.4519182169
11 1 -5.6178129375 -5.0930543750 -4.0605297120
12 1 -5.0331096875 -5.7151071563 -5.6596911336
13 1 -4.4592881250 -5.8027008438 -4.8721667920
14 1 -4.5184265625 -5.2450728125 -4.0584703440
15 1 -3.8901562500 -5.8900405625 -5.6597636648
16 1 -3.3392590625 -5.9859319063 -4.8416130240
17 1 -3.3700175000 -5.4137147813 -4.0566311600
18 1 -2.7908746875 -6.0065853438 -5.6738515552
19 1 -6.1640956875 -4.4022862500 -5.6622646960
20 1 -5.5922010625 -4.5344843750 -4.8703405600
21 1 -5.6481185313 -3.9816925000 -4.0528232720
22 1 -5.0159768750 -4.5810318750 -5.6450657352
23 1 -4.4532143750 -4.6776206250 -4.8523890880
24 1 -4.5087515625 -4.1166453125 -4.0463990800
25 1 -3.8991190625 -4.7964484375 -5.6870496432
26 1 -3.3620490625 -4.8341003125 -4.8211618160
27 1 -3.3580715625 -4.2662046875 -4.0177233520
28 1 -2.8377043750 -4.9310250000 -5.6959152872
29 1 -6.1162716250 -3.2758206250 -5.6224644952
30 1 -5.5667410313 -3.4050356250 -4.8182087600
31 1 -5.6316817813 -2.8263362500 -4.0578875040
32 1 -5.0251950000 -3.4921240625 -5.6741934880
33 1 -4.4694334375 -3.5424206250 -4.8250085600
34 1 -3.8655253125 -3.0786925000 -6.4562594682
35 1 -4.4588984375 -2.9861350000 -4.0120503760
36 1 -3.9622618750 -3.6672415625 -5.7126609280
37 1 -3.3928343750 -3.7481487500 -4.9004928160
38 1 -3.3320968750 -3.2009200000 -4.0423451040
39 1 -2.8160431250 -3.7919012500 -5.6820967984
40 1 -6.1055713438 -6.1109880000 -3.2033922560
41 1 -6.2116966875 -6.7136491653 -2.4869912320
42 1 -5.0211368750 -6.2559195000 -3.2045449840
43 1 -3.9474403125 -6.4256982813 -3.2530631760
44 1 -2.8026728125 -6.5850941750 -3.2525450960
45 1 -6.1549541563 -4.9717540625 -3.2022395280
46 1 -6.2171657500 -5.5415228750 -2.4259225520
47 1 -5.0667706250 -5.1432031250 -3.2328451040
48 1 -5.0251143750 -5.6891566563 -2.4026089520
49 1 -3.9446184375 -5.3299978125 -3.2686185280
50 1 -3.8956387500 -5.8699622500 -2.4246144000
51 1 -2.8058171875 -5.4535287500 -3.2623756640
52 1 -2.8154384375 -6.0209822813 -2.4613592240
53 1 -6.1997856875 -3.8525446875 -3.2376632480
54 1 -6.1235198125 -4.3990343750 -2.4059764720
55 1 -5.0732475000 -4.0167643750 -3.2534258320
56 1 -5.0150093750 -4.5799971875 -2.4330461520
57 1 -3.9340565625 -4.2287543750 -3.2560809920
58 1 -3.9211431250 -4.7791140625 -2.4366597600
59 1 -2.7732178125 -4.3579425000 -3.2490739600
60 1 -2.8123746875 -4.9012609375 -2.4345874400
61 1 -6.1874205000 -2.7544725000 -3.2455639680
62 1 -6.1257732813 -3.3035287500 -2.4100563520
63 1 -5.0662734375 -2.9234625000 -3.2703670480
64 1 -5.0256250000 -3.4658806250 -2.4237984240
65 1 -3.9020618750 -3.0806678125 -3.2341921120
66 1 -3.9513909375 -3.6598509375 -2.4607763840
67 1 -2.7920975000 -3.1854265625 -3.2099589200
68 1 -2.8429450000 -3.7693934375 -2.4698298320
69 1 -2.2727650000 -3.7473156250 -4.8629190640
70 1 -2.2492359375 -3.2053006250 -4.0426559520
71 1 -5.0609790625 -2.3961481250 -5.7074360912
72 1 -4.5192596875 -2.4501131250 -4.8632817200
73 1 -3.9470506250 -2.5102459375 -5.6677136024
74 1 -3.3931703125 -2.6567281250 -4.8734360880
75 1 -2.8003346875 -2.6235643750 -5.6272709824
76 1 -5.0692162500 -2.3708721875 -2.4408950640
77 1 -3.9656884375 -2.5289240625 -2.4129964560
78 1 -2.7859162500 -2.6067675000 -2.4298081520
79 1 -2.2795509375 -4.8978343750 -4.8523631840
80 1 -6.1795850938 -6.7059631303 -5.7026723456
81 1 -2.8360112500 -6.5773256875 -6.4739595160
82 1 -6.1486640625 -4.9634765625 -6.4635921006
83 1 -6.1791241875 -3.8203887500 -6.4475896585
84 1 -2.7801112500 -4.3402318750 -6.4707831028
85 1 -2.7839140625 -3.1979100000 -6.4388960170
86 1 -2.2200228125 -6.0203843125 -4.8786686960
87 1 -2.2238659375 -4.3310137500 -4.0673036080
88 1 -2.2377200000 -6.5659280000 -4.0385372160
89 1 -1.1044012500 -6.4542502813 -4.0920678320
90 1 -0.0042596875 -6.3383612500 -4.1069496800
91 1 1.1118456250 -6.6554674375 -4.8841992000
92 1 1.1009746875 -6.1282202500 -4.0085274320
93 1 1.6760862500 -6.6115249313 -5.7133111184
94 1 -1.6716921875 -5.3908441563 -6.4492740661
95 1 -2.2160050000 -5.4725065313 -4.0539889520
96 1 -1.6709396875 -5.9924329688 -5.7012087696
97 1 -1.1163875000 -5.8811395625 -4.8915041280
98 1 -0.5988556250 -5.2685884375 -6.4369605997
99 1 -1.1154871875 -5.3448059375 -4.0283958000
100 1 -0.5251509375 -5.8604485000 -5.6676410712
101 1 0.0088956250 -5.7229506250 -4.8307203920
102 1 -0.0015453125 -5.1371831250 -4.0912777600
103 1 0.5677612500 -5.6252129688 -5.6413057696
104 1 1.1528031250 -5.5784141875 -4.8565466800
105 1 1.1060406250 -5.0044878125 -4.0930133280
106 1 1.6765700000 -5.4352335938 -5.7123423088
107 1 -1.7365684375 -4.8219931250 -5.6555024568
108 1 -1.1328081250 -4.8140918750 -4.9032904480
109 1 -1.1163606250 -4.2620793750 -4.0820429840
110 1 -0.5610693750 -4.6891096875 -5.6863515304
111 1 -0.0172671875 -4.5716256250 -4.8883438400
112 1 0.5146293750 -3.9635921875 -6.4261995600
113 1 -0.0019753125 -4.0423493750 -4.0064421600
114 1 0.5823678125 -4.5691128125 -5.6822975544
115 1 1.1004640625 -4.4044631250 -4.8485812000
116 1 1.1242618750 -3.8462828125 -4.0649333920
117 1 1.6752396875 -4.3272378125 -5.6449310344
118 1 -1.6744871875 -3.7525696875 -5.6325165424
119 1 -1.1369065625 -3.6508881250 -4.7977446000
120 1 -1.1127593750 -3.0550962500 -4.0751395680
121 1 -0.6055340625 -3.5398540625 -5.6470448008
122 1 -0.0006046875 -3.5188915625 -4.8881625120
123 1 0.5537459375 -2.7675471875 -6.4576090666
124 1 0.0072562500 -2.9616787500 -4.0745696800
125 1 0.5400128125 -3.3695875000 -5.7140170024
126 1 1.0886256250 -3.2823512500 -4.8984723040
127 1 1.6594640625 -2.6580315625 -6.4235682317
128 1 1.1202306250 -2.7688103125 -3.9985414400
129 1 1.6854790625 -3.2579353125 -5.6688805776
130 1 -1.6498159375 -6.5861687719 -3.2635672480
131 1 -0.5682450000 -6.3698103750 -3.2498510800
132 1 0.5035837500 -6.1541479063 -3.2572855280
133 1 1.6862046875 -6.0280490625 -3.2683853920
134 1 1.6386090625 -6.5908999813 -2.4634833520
135 1 -1.6790290625 -5.4205464063 -3.2267576640
136 1 -1.6971696875 -6.0161447813 -2.4839345600
137 1 -0.5327565625 -5.2919293750 -3.2560939440
138 1 -0.5693334375 -5.8391070625 -2.3859138240
139 1 0.5517975000 -5.0823715625 -3.2484393120
140 1 0.5981300000 -5.6247520625 -2.3956666800
141 1 1.6245534375 -4.8603571875 -3.2407328720
142 1 1.6854387500 -5.4522212813 -2.4834553360
143 1 -1.6739900000 -4.2548231250 -3.2496568000
144 1 -1.6633340625 -4.8381046875 -2.4704515280
145 1 -0.5852971875 -4.1320446875 -3.2411991440
146 1 -0.5607334375 -4.7424700000 -2.4653095840
147 1 0.5835234375 -3.9905478125 -3.2429217600
148 1 0.5212406250 -4.5416600000 -2.3954594480
149 1 1.6698243750 -3.7480815625 -3.2082881120
150 1 1.6926143750 -4.3184765625 -2.4057174320
151 1 -1.6646778125 -3.1611718750 -3.2520788240
152 1 -1.7195968750 -3.7174440625 -2.4055620080
153 1 -0.5727465625 -3.0014537500 -3.2453955920
154 1 -0.5440575000 -3.5909434375 -2.4433948000
155 1 0.5263603125 -2.8149009375 -3.2334538480
156 1 0.5424987500 -3.4184596875 -2.4750624400
157 1 1.6930175000 -2.6190896875 -3.2299438560
158 1 1.6283025000 -3.1810190625 -2.4062484640
159 1 2.2024868750 -6.4464484688 -4.8674911200
160 1 -2.2157765625 -2.6365046875 -4.8839142560
161 1 -1.6544921875 -2.6516756250 -5.6916527840
162 1 -1.1297712500 -2.4596000000 -4.8513788320
163 1 -0.5551165625 -2.4870796875 -5.6582081296
164 1 -0.0081162500 -2.3672978125 -4.8333626000
165 1 -1.6718131250 -2.5999815625 -2.4695060320
166 1 -0.5635284375 -2.4625696875 -2.4108464240
167 1 0.6049159375 -2.2734637500 -2.4020649680
168 1 2.2226700000 -5.3532043750 -4.8701851360
169 1 2.2196465625 -4.8127346875 -3.9968058720
170 1 2.1992350000 -3.6919262500 -4.0917440320
171 1 2.2258412500 -3.1038071875 -4.8446956000
172 1 1.6644896875 -6.0178096875 -6.4620380030
173 1 -0.5894896875 -4.0960053125 -6.4595473334
174 1 6.7125284375 -6.5459101563 -4.8667269520
175 1 6.6995209375 -5.4844645625 -4.8788759280
176 1 6.7142350000 -4.3805712500 -4.8669082800
177 1 2.2542078125 -4.2807575000 -4.8517155840
178 1 6.6856534375 -3.8135893750 -4.0557633760
179 1 6.7164253125 -3.2655140625 -4.8771921680
180 1 6.6876153125 -2.7048343750 -4.0669927600
181 1 2.2664628125 -5.9008080313 -4.0284864640
182 1 2.7848412500 -6.4112664063 -5.6475162536
183 1 3.3618206250 -6.3258979688 -4.8929288480
184 1 3.3590928125 -5.7616654063 -4.0805276000
185 1 3.9517940625 -6.2678909688 -5.6659845104
186 1 4.4885281250 -6.3553032500 -4.8428952720
187 1 4.4402068750 -5.7624662813 -4.0957980080
188 1 5.0574046875 -6.3491327500 -5.6536321880
189 1 5.6072671875 -6.4160582188 -4.8089998880
190 1 5.6039750000 -5.8359089375 -4.0446764640
191 1 6.1370003125 -6.5673389375 -5.6685503016
192 1 2.7814684375 -5.2889865625 -5.7077870904
193 1 3.3192237500 -5.1861359375 -4.8711953920
194 1 3.3690634375 -4.6473728125 -4.0524347120
195 1 3.9048703125 -5.1815268750 -5.6343078040
196 1 4.4801565625 -5.1671890625 -4.8339065840
197 1 5.0253562500 -4.7003568750 -6.4660895829
198 1 4.4878293750 -4.5944962500 -4.0662674480
199 1 5.0221581250 -5.2712356250 -5.6538510768
200 1 5.5982371875 -5.2866887500 -4.8553162400
201 1 5.6205165625 -4.7279306250 -4.0232279520
202 1 6.1451971875 -5.4215878125 -5.6905751776
203 1 2.7897728125 -4.1329450000 -5.6817328472
204 1 3.3473618750 -4.0604228125 -4.8380123680
205 1 3.9071143750 -3.5107618750 -6.4582978540
206 1 3.3359937500 -3.5263225000 -4.0117395280
207 1 3.8882750000 -4.0823528125 -5.6793250704
208 1 4.4461462500 -4.0236175000 -4.8680739600
209 1 5.0450153125 -3.5812818750 -6.4673358632
210 1 4.5012937500 -3.4968271875 -4.0161691120
211 1 5.0154796875 -4.1435337500 -5.6617064648
212 1 5.5784571875 -4.1920028125 -4.8685531840
213 1 6.1714675000 -3.7059281250 -6.4483561578
214 1 5.6010053125 -3.6297778125 -4.0569031520
215 1 6.1442028125 -4.2824103125 -5.6707456656
216 1 2.2428531250 -2.5410581250 -4.0478626560
217 1 2.7982653125 -3.0333409375 -5.6405856384
218 1 3.3644006250 -2.9678868750 -4.8336345920
219 1 3.3441100000 -2.3867418750 -4.0724066960
220 1 3.8998984375 -2.9230862500 -5.6873449488
221 1 4.4538056250 -2.9421675000 -4.8512752160
222 1 4.4606990625 -2.3939040625 -4.0327476720
223 1 5.0028081250 -3.0066540625 -5.6837442928
224 1 5.5637968750 -3.0739356250 -4.8753141280
225 1 6.1610400000 -2.5659712500 -6.4236815617
226 1 5.5889921875 -2.5283193750 -4.0344443840
227 1 6.1512709375 -3.1421175000 -5.6496857136
228 1 2.8303675000 -5.8510019375 -3.2172379440
229 1 2.7997031250 -6.4249310000 -2.4247827760
230 1 3.9041715625 -5.7037403750 -3.2191289360
231 1 3.9371337500 -6.2888575000 -2.4405194560
232 1 4.9892900000 -5.8051652813 -3.2927740080
233 1 5.0468428125 -6.3166704375 -2.4007568160
234 1 6.1573446875 -5.9960194375 -3.2766099120
235 1 6.1639425000 -6.5338647813 -2.4310126880
236 1 2.7997971875 -4.6941621875 -3.2496049920
237 1 2.7499171875 -5.2642078125 -2.4655038640
238 1 3.9223390625 -4.6339084375 -3.2476233360
239 1 3.9270018750 -5.1562375000 -2.3865355200
240 1 5.0358643750 -4.7051406250 -3.2529336560
241 1 5.0558728125 -5.2599615625 -2.4312069680
242 1 6.1888287500 -4.8224903125 -3.2113447840
243 1 6.1040918750 -5.4322047813 -2.4852556640
244 1 2.7380653125 -3.5630337500 -3.2576352320
245 1 2.8059112500 -4.1237134375 -2.4530828960
246 1 3.9186303125 -3.5022962500 -3.2630232640
247 1 3.8759796875 -4.0459775000 -2.4447288560
248 1 5.0673618750 -3.5430790625 -3.2057365680
249 1 4.9733800000 -4.1356996875 -2.4672394320
250 1 6.1464200000 -3.7021521875 -3.1955951520
251 1 6.1359925000 -4.2741865625 -2.4060800880
252 1 2.8075909375 -2.4726343750 -3.2156318960
253 1 2.7997837500 -3.0259234375 -2.3975706240
254 1 3.8929378125 -2.3556071875 -3.2275088800
255 1 3.9055421875 -2.9400981250 -2.4574218160
256 1 5.0203440625 -2.3998703125 -3.2289076960
257 1 5.0150362500 -2.9656562500 -2.4329943440
258 1 6.1481668750 -2.5761703125 -3.2278585840
259 1 6.1838300000 -3.1232512500 -2.4103931040
260 1 6.1662134375 -6.0008354375 -6.4638716565
261 1 2.7884962500 -4.6872015625 -6.4619390498
262 1 6.1447806250 -4.8424181250 -6.4625694236
263 1 5.0621346875 -2.4320128125 -6.4409211918
264 1 -6.1310179375 -2.2014253125 -5.6530558240
265 1 -6.6812906844 -2.1247375000 -4.8296453760
266 1 -5.5723619375 -2.2364031250 -4.8168488000
267 1 -4.9927837500 -1.7921056250 -6.4243748822
268 1 -5.5484767813 -1.6803593750 -4.0036704320
269 1 -3.9077190625 -1.9403750000 -6.4655205498
270 1 -4.4166509375 -1.8841525000 -4.0518518720
271 1 -3.3430887500 -2.0890743750 -4.0871719760
272 1 -6.6986762563 -0.9650543750 -4.8021871360
273 1 -6.0825959063 -0.5096709375 -6.4302363098
274 1 -6.6638803875 -0.4081640625 -3.9943708960
275 1 -6.1885734375 -1.0939737500 -5.6959645048
276 1 -5.6343262813 -1.1482478125 -4.8645898720
277 1 -5.0061137500 -0.6585046875 -6.4379027282
278 1 -5.5230624375 -0.5974446875 -4.0383429360
279 1 -5.0478103125 -1.2263465625 -5.6410247112
280 1 -4.4726181250 -1.3400950000 -4.8780470000
281 1 -4.4681703125 -0.7731265625 -4.0843872960
282 1 -3.8479356250 -1.4233000000 -5.5909354416
283 1 -3.2819078125 -1.4728575000 -4.7937553840
284 1 -2.8070400000 -0.9993737500 -6.4749182736
285 1 -3.3551825000 -0.9105250000 -4.0044864080
286 1 -2.7687834375 -1.5603625000 -5.6749226856
287 1 -6.1625181250 0.6149940625 -6.4658848118
288 1 -6.6710580281 0.6888196875 -4.0574471360
289 1 -6.1555991563 0.0628740625 -5.6418821336
290 1 -5.5850120000 -0.0531453125 -4.8696800080
291 1 -5.6016839063 0.5168600000 -4.0794914400
292 1 -4.9858768750 -0.1111415625 -5.6039716296
293 1 -4.3911062500 -0.1904228125 -4.8403178240
294 1 -3.9055018750 0.2475993750 -6.4411811384
295 1 -4.4822393750 0.3460425000 -3.9978420320
296 1 -3.8572746875 -0.3415006250 -5.6629407904
297 1 -3.2861540625 -0.3673543750 -4.8226772000
298 1 -3.2986375000 0.2053653125 -3.9949925920
299 1 -2.7545396875 -0.4277828125 -5.6960461024
300 1 -6.6998693719 1.2456696875 -4.8661182080
301 1 -6.1048779688 1.1554771875 -5.6193793288
302 1 -5.5316167500 1.1081906250 -4.8249826560
303 1 -5.0423546875 1.5782746875 -6.4454203280
304 1 -5.6391731875 1.6561853125 -3.9945522240
305 1 -5.0182209375 0.9820662500 -5.7066486096
306 1 -4.4745531250 0.9053918750 -4.8298267040
307 1 -4.4470196875 1.4429993750 -3.9791522960
308 1 -3.9297700000 0.8410934375 -5.6928119880
309 1 -3.4034231250 0.7250471875 -4.8505758080
310 1 -3.3157568750 1.3118762500 -4.0980516560
311 1 -2.8150218750 0.7059928125 -5.6260444280
312 1 -6.1475003750 -1.6646106250 -3.2686703360
313 1 -6.1549326563 -2.1962518750 -2.4231249200
314 1 -4.9715928125 -1.8088487500 -3.2327803440
315 1 -3.8837734375 -1.9536781250 -3.2007370960
316 1 -2.8380403125 -2.0604659375 -3.2250480000
317 1 -6.0896250625 -0.5253121875 -3.2320938880
318 1 -6.1796751250 -1.0937856250 -2.4594034720
319 1 -4.9760943750 -0.6736487500 -3.1682923360
320 1 -5.0861609375 -1.2584487500 -2.4218167680
321 1 -3.9189125000 -0.8609675000 -3.2195045440
322 1 -3.8744478125 -1.4023912500 -2.3806423600
323 1 -2.7299893750 -0.9744875000 -3.2948851840
324 1 -2.7491915625 -1.4791193750 -2.3869758880
325 1 -6.1195046875 0.6094040625 -3.1871245440
326 1 -6.1866854688 0.0191753125 -2.4143046080
327 1 -5.0736909375 0.4300940625 -3.2146864000
328 1 -4.9833103125 -0.1066400000 -2.3792824000
329 1 -3.9030562500 0.2696234375 -3.2562623200
330 1 -3.8197168750 -0.2947784375 -2.4401438480
331 1 -2.7387775000 0.1640718750 -3.2266929040
332 1 -2.7795200000 -0.4186990625 -2.4183715360
333 1 -6.2181964063 1.7001259375 -3.2135336720
334 1 -6.1155930313 1.1637009375 -2.3746714880
335 1 -5.0435103125 1.5713006250 -3.2607825680
336 1 -4.9707193750 1.0210887500 -2.4556603440
337 1 -3.8379650000 1.4175756250 -3.2284025680
338 1 -3.9308584375 0.8394271875 -2.4579139920
339 1 -2.7791975000 1.2848131250 -3.2042211840
340 1 -2.7972037500 0.7032112500 -2.4151982960
341 1 -2.2458093750 -2.1333106250 -4.0463602240
342 1 -5.5931927500 2.1882028125 -4.8593313600
343 1 -5.0275600000 2.1549718750 -5.6746688264
344 1 -4.4956365625 1.9766159375 -4.8343469520
345 1 -3.9247309375 1.9403346875 -5.6379369544
346 1 -3.3487862500 1.8959371875 -4.8368207840
347 1 -2.8105337500 1.7998859375 -5.6558702936
348 1 -5.0466950000 2.1339959375 -2.4529015680
349 1 -3.9255640625 1.9760784375 -2.3910039600
350 1 -2.7404975000 1.8488521875 -2.4054713440
351 1 -3.9470909375 -0.8831125000 -6.4754776329
352 1 -2.7930246875 0.1536443750 -6.4587761714
353 1 0.5401875000 -2.2116646875 -5.6490083240
354 1 1.1221387500 -2.2347771875 -4.8620771840
355 1 -2.2154540625 -1.5132103125 -4.8095309200
356 1 -2.2318478125 -0.4677459375 -4.8404084880
357 1 -2.2126456250 1.8022912500 -4.8653669920
358 1 -0.5565812500 -1.9226375000 -6.4740025814
359 1 -1.1063228125 -1.9439628125 -4.0174513600
360 1 0.0121743750 -1.7904125000 -4.0820429840
361 1 1.1291128125 -1.6620575000 -4.0734299040
362 1 1.6637237500 -2.0637581250 -5.6981443264
363 1 -2.1069193750 -0.9892418750 -3.9065045280
364 1 -1.6922246875 -1.4914012500 -5.6839489344
365 1 -1.1093059375 -1.3909425000 -4.8936541600
366 1 -1.1661734375 -0.8805593750 -3.9526266000
367 1 -0.5404831250 -1.3541640625 -5.6935113960
368 1 -0.0352196875 -1.1813309375 -4.8340490560
369 1 -0.0466818750 -0.6781637500 -3.9847087040
370 1 0.5776109375 -1.1789121875 -5.6208157056
371 1 1.1060809375 -1.0520353125 -4.7936388160
372 1 1.0990128125 -0.4645209375 -4.0615917760
373 1 1.6631190625 -0.9441187500 -5.6436202920
374 1 -2.2002831250 0.1479871875 -4.0981423200
375 1 -1.6534978125 -0.3494959375 -5.6340448784
376 1 -1.0792731250 -0.3314896875 -4.8437112480
377 1 -1.1181075000 0.2802525000 -4.1133738720
378 1 -0.5526306250 -0.1518168750 -5.6863217408
379 1 0.0215000000 -0.1208703125 -4.8879552800
380 1 0.6048084375 0.5483978125 -6.4309828631
381 1 -0.0315781250 0.3970243750 -4.0320223600
382 1 0.5820990625 -0.0594878125 -5.6986779488
383 1 1.1032187500 0.1170137500 -4.8485682480
384 1 1.6931384375 0.0900850000 -5.6422383136
385 1 1.1145331250 0.6317103125 -3.9687129840
386 1 2.2361209375 0.2551646875 -4.8243868640
387 1 -2.2276687500 0.6978900000 -4.8937189200
388 1 -1.6943209375 1.3016100000 -6.4259089171
389 1 -2.2287706250 1.2407381250 -4.0405836320
390 1 -1.6415518750 0.7275062500 -5.6757023960
391 1 -1.0939468750 0.8551087500 -4.8763891440
392 1 -1.1079218750 1.4081828125 -4.0317633200
393 1 -0.5191175000 0.9500043750 -5.6772812448
394 1 0.0281112500 0.9732512500 -4.8255654960
395 1 0.0085328125 1.5816340625 -4.1459481520
396 1 0.5427675000 1.1366378125 -5.6901684848
397 1 1.1416365625 1.1549262500 -4.8954933440
398 1 1.6926681250 1.2488140625 -5.6896776040
399 1 1.6993734375 0.6661909375 -6.4449184380
400 1 -1.6933131250 -1.9752856250 -3.2256178880
401 1 -0.5205553125 -1.9160934375 -3.2485299760
402 1 0.5524962500 -1.7143831250 -3.2495790880
403 1 1.6527721875 -1.4489925000 -3.2402406960
404 1 1.6788812500 -2.0402425000 -2.4567224080
405 1 -1.6600687500 -1.4141356250 -2.5694825200
406 1 -0.6512887500 -0.7825328125 -3.1961779920
407 1 -0.5576562500 -1.3682600000 -2.4215318240
408 1 0.5419075000 -0.6242525000 -3.2453826400
409 1 1.6921440625 -0.4146275000 -3.2708203680
410 1 -1.6524765625 0.0017603125 -3.2514959840
411 1 -1.6723640625 -0.4735240625 -2.5004613120
412 1 -0.5854584375 0.3582034375 -3.2282082880
413 1 -0.4905359375 -0.2032556250 -2.4078545120
414 1 0.6523637500 1.0900903125 -2.4192781760
415 1 0.5276906250 0.5378762500 -3.2282860000
416 1 1.7354128125 0.6786206250 -3.2302417520
417 1 1.6202803125 0.1051350000 -2.4142139440
418 1 -1.6525975000 1.1782671875 -3.2486076880
419 1 -1.6533096875 0.6542987500 -2.4473451600
420 1 -0.4937475000 1.4418303125 -3.2601090640
421 1 -0.5372043750 0.8988612500 -2.4033213120
422 1 0.5340868750 1.6499368750 -3.2417690320
423 1 1.1167637500 1.6841487500 -4.0417363600
424 1 1.6778196875 1.2504937500 -2.4864990560
425 1 2.2351265625 -0.9278056250 -4.8337641120
426 1 1.6572737500 1.8565115625 -3.2121996160
427 1 -1.6752800000 1.9053434375 -5.6930710280
428 1 -1.1119262500 1.9390178125 -4.8894447600
429 1 -0.5322325000 2.0436287500 -5.6958505272
430 1 0.5975253125 2.2102403125 -5.6395339360
431 1 1.7067237500 1.8356834375 -6.4267272245
432 1 -1.6332475000 1.7852121875 -2.4907084560
433 1 -0.5777587500 1.9971215625 -2.4481740880
434 1 0.5966921875 2.1660443750 -2.3595306000
435 1 0.5358606250 -1.1828896875 -2.4210266960
436 1 0.5998365625 -0.0512909375 -2.4623565280
437 1 1.6612512500 -0.9422643750 -2.3555413840
438 1 2.2106703125 -1.9956971875 -4.8904679680
439 1 -0.0120265625 2.1916696875 -4.8751716560
440 1 -1.6643553125 -2.0608959375 -6.4474813798
441 1 1.6699453125 -1.4879612500 -6.4733461093
442 1 -1.6416593750 -0.9066415625 -6.4635350470
443 1 -0.5298809375 -0.7524193750 -6.4197582714
444 1 0.5645496875 -0.6365075000 -6.4703382793
445 1 6.7017246875 0.1212196875 -4.8590593680
446 1 2.2439550000 1.9087834375 -3.9853951600
447 1 6.7145306250 -1.5560221875 -4.0475129520
448 1 6.6997628125 1.8199481250 -4.0778594880
449 1 2.8129793750 -1.3590821875 -6.4288544610
450 1 2.2596768750 -1.4759078125 -4.0073876560
451 1 2.8098753125 -1.9385340625 -5.6742737904
452 1 3.3449296875 -1.8072900000 -4.8557566080
453 1 3.3825681250 -1.2695212500 -4.0387185440
454 1 3.9302940625 -1.8497390625 -5.6460591536
455 1 4.4960531250 -1.8305100000 -4.8468974400
456 1 5.0205321875 -1.2947971875 -6.4570577000
457 1 4.4661546875 -1.2659871875 -4.0538076240
458 1 5.0506993750 -1.8586750000 -5.6688158176
459 1 5.6115403125 -1.9896368750 -4.8654188000
460 1 5.5779600000 -1.4230178125 -4.0484584480
461 1 6.1963537500 -1.9949178125 -5.6352986320
462 1 2.7731909375 -0.1953678125 -3.2335186080
463 1 2.7687296875 -0.7674290625 -5.6869136472
464 1 3.3480875000 -0.7205053125 -4.8987313440
465 1 3.9116428125 -0.1276696875 -6.4021418676
466 1 3.3626671875 -0.2061715625 -4.0153401840
467 1 3.9430865625 -0.7212175000 -5.6623955112
468 1 4.4987540625 -0.7073500000 -4.8759746800
469 1 4.4745262500 -0.1667056250 -4.0426948080
470 1 5.1047987500 -0.7432146875 -5.6334335440
471 1 5.6452281250 -0.8519240625 -4.8119399920
472 1 5.5885621875 -0.2633078125 -4.0601800080
473 1 6.1868534375 -0.9234653125 -5.6713595904
474 1 2.2524340625 -0.3364615625 -4.0967564560
475 1 2.2434578125 0.8329771875 -4.0708395040
476 1 2.8060993750 0.3538631250 -5.6249007664
477 1 3.4020525000 0.3508800000 -4.8551737680
478 1 3.3622909375 0.9180096875 -4.0675367440
479 1 3.9531512500 0.4723550000 -5.6745535536
480 1 4.5037662500 0.4028562500 -4.8410172320
481 1 4.5129709375 0.9617218750 -4.0379802800
482 1 5.0615568750 0.3426696875 -5.6676203480
483 1 5.6187965625 0.3199334375 -4.8176647760
484 1 6.1980065625 0.7645400000 -6.4212322090
485 1 5.6531159375 0.8686806250 -4.0081000160
486 1 6.1465409375 0.1679284375 -5.6805205400
487 1 2.2463334375 1.4105612500 -4.8696929600
488 1 2.8119178125 1.9595637500 -6.4678799120
489 1 2.8404590625 1.4156406250 -5.6308392584
490 1 3.3911681250 1.5158709375 -4.8093495920
491 1 3.3578162500 2.0979028125 -4.0785070880
492 1 3.9253356250 1.5459709375 -5.6637567664
493 1 4.4921562500 1.5293756250 -4.8202551760
494 1 5.0592053125 2.0434540625 -6.4406735495
495 1 4.4865393750 2.1084781250 -4.0224896880
496 1 5.0007656250 1.4632496875 -5.6906179192
497 1 5.5765356250 1.3958606250 -4.8872947280
498 1 6.1463125000 1.8825803125 -6.4697178267
499 1 5.6216721875 1.9483031250 -4.0458939520
500 1 6.1687665625 1.3338600000 -5.6356366792
501 1 2.8198996875 -1.3325296875 -3.2209292640
502 1 2.7517043750 -1.8874850000 -2.4237984240
503 1 3.9280500000 -1.2506550000 -3.1943906160
504 1 3.9311271875 -1.8129875000 -2.4015468880
505 1 5.0239318750 -1.2861971875 -3.2275347840
506 1 5.0760290625 -1.8507737500 -2.4199646320
507 1 6.1566056250 -1.4576865625 -3.2511203760
508 1 6.1611609375 -2.0075087500 -2.4248734400
509 1 2.7865209375 0.3471443750 -2.4044351840
510 1 2.7754484375 -0.7568537500 -2.4417887520
511 1 3.9313018750 -0.1002168750 -3.2148418240
512 1 3.9048300000 -0.6673331250 -2.4287201840
513 1 5.0422203125 -0.1917262500 -3.2199578640
514 1 5.0637606250 -0.7429325000 -2.4012878480
515 1 6.1556918750 -0.3713050000 -3.2673621840
516 1 6.1802153125 -0.9076762500 -2.4167266320
517 1 2.8319934375 2.0291700000 -3.2335833680
518 1 2.8283518750 0.9018846875 -3.2470664000
519 1 3.9413934375 1.0030421875 -3.2645127440
520 1 3.8860175000 0.4526825000 -2.4196019760
521 1 5.0729787500 0.9055531250 -3.2335056560
522 1 5.0319003125 0.3724875000 -2.4053547760
523 1 6.2224628125 0.7431878125 -3.2209940240
524 1 6.1641709375 0.1801700000 -2.4346651520
525 1 3.9019543750 2.0868706250 -3.2404738320
526 1 3.9305359375 1.5400450000 -2.4054065840
527 1 5.0629006250 2.0520675000 -3.2381554240
528 1 5.0118246875 1.4795493750 -2.4439517360
529 1 6.1702312500 1.8856171875 -3.1889248720
530 1 6.1152181250 1.3031418750 -2.4104578640
531 1 2.7988565625 1.4473800000 -2.4558934800
532 1 3.9197321875 -1.2792231250 -6.4567598040
533 1 2.8224528125 -0.1884475000 -6.4600307021
534 1 -5.6305127188 6.6819312500 -4.8926698080
535 1 -5.0388340625 6.6151065625 -5.6677628200
536 1 -4.4873725000 6.4853809375 -4.8573885600
537 1 -3.9192887500 6.4274518750 -5.6401996688
538 1 -3.3233221875 6.3410353125 -4.8863880880
539 1 -2.7570390625 6.2951462500 -5.6982181528
540 1 -5.0852740625 6.6045984375 -2.4202495760
541 1 -3.9076115625 6.4701159375 -2.4129316960
542 1 -2.7866821875 6.2906984375 -2.4699982080
543 1 -6.6793286750 2.4045600000 -4.8409395200
544 1 -6.1399202813 2.8505506250 -6.4276157317
545 1 -6.1522841250 2.2577150000 -5.6983748720
546 1 -5.5651177813 2.7297340625 -4.0037092880
547 1 -4.4783156250 2.5777156250 -4.1111072720
548 1 -3.3749356250 2.4647465625 -4.0656716560
549 1 -6.7103342147 3.9892175000 -4.0181507680
550 1 -6.1412116250 3.4447434375 -5.6867413856
551 1 -5.6284272188 3.2674087500 -4.8412892240
552 1 -5.5987545313 3.8621928125 -4.1114828800
553 1 -5.0264984375 3.2457206250 -5.6092469792
554 1 -4.4355978125 3.1729700000 -4.8385304480
555 1 -3.8913253125 3.5802471875 -6.4358976290
556 1 -4.4862168750 3.7510512500 -4.0727823040
557 1 -3.9047896875 3.0078365625 -5.6592507656
558 1 -3.2984359375 3.0360418750 -4.8744463440
559 1 -2.7854325000 3.5217000000 -6.4552043983
560 1 -3.3477515625 3.5599162500 -4.0031653040
561 1 -2.7710006250 2.9220784375 -5.7104707448
562 1 -6.1375955938 4.5369165625 -5.6325100664
563 1 -5.5737607813 4.4692184375 -4.8150096160
564 1 -5.6028879063 5.0508740625 -4.0581335920
565 1 -5.0513712500 4.2946518750 -5.6647475944
566 1 -4.4566006250 4.3149828125 -4.8702110400
567 1 -3.8980978125 4.7506265625 -6.4551546626
568 1 -4.4459446875 4.8476587500 -3.9913142240
569 1 -3.9166415625 4.1761331250 -5.7047602080
570 1 -3.3480068750 4.0904556250 -4.8917372640
571 1 -3.3415031250 4.6482059375 -4.0896846640
572 1 -2.7546203125 4.0792218750 -5.6490251616
573 1 -6.1384220000 6.1482475000 -6.4566305430
574 1 -6.7079444897 6.3297746875 -4.0602059120
575 1 -6.1685381250 5.5796396875 -5.6622426776
576 1 -5.5820920313 5.6166734375 -4.8630226800
577 1 -5.0285409375 6.0430587500 -6.4472806238
578 1 -5.5641905938 6.1528834375 -4.0003806240
579 1 -5.0547171875 5.4474818750 -5.7091574120
580 1 -4.5071928125 5.3689934375 -4.8787593600
581 1 -4.4447353125 5.9257762500 -4.0574989440
582 1 -3.9289771875 5.3313281250 -5.6793004616
583 1 -3.3725706250 5.2295793750 -4.8605229440
584 1 -3.3602887500 5.7892781250 -4.0627186000
585 1 -2.8087868750 5.1606718750 -5.6512282968
586 1 -6.1410140938 2.8614215625 -3.2311095360
587 1 -6.1057178125 2.2933646875 -2.4638719120
588 1 -4.9744550000 2.7227062500 -3.2161111200
589 1 -3.9286546875 2.5022909375 -3.2389973040
590 1 -2.8101978125 2.3856937500 -3.2627642240
591 1 -6.1113844063 4.0144934375 -3.2358370160
592 1 -6.1649046250 3.4410481250 -2.4545594240
593 1 -5.0523521875 3.7807750000 -3.2505504880
594 1 -5.0283662500 3.2552075000 -2.3646207360
595 1 -3.9372009375 3.6044346875 -3.2648235920
596 1 -3.8435953125 3.0676065625 -2.4179441200
597 1 -2.7390193750 3.5388865625 -3.2572337200
598 1 -2.7868165625 2.9494506250 -2.4794661200
599 1 -6.1921867813 5.0633978125 -3.2758457440
600 1 -6.1299308438 4.5470484375 -2.3720163280
601 1 -5.0475818750 4.8745740625 -3.2682040640
602 1 -4.9969762500 4.3367650000 -2.4205215680
603 1 -3.8580943750 4.7653271875 -3.2168234800
604 1 -3.9277409375 4.1589062500 -2.4831574400
605 1 -2.7907806250 4.6238571875 -3.2296459600
606 1 -2.8085987500 4.0617128125 -2.4081135520
607 1 -6.1680557188 6.1565384375 -3.2649919680
608 1 -6.1162030938 5.6090140625 -2.4282021040
609 1 -4.9862128125 6.0519946875 -3.2292703520
610 1 -5.0681681250 5.4478312500 -2.4937133200
611 1 -3.8888125000 5.8999090625 -3.2053998160
612 1 -3.9673412500 5.3204840625 -2.4311422080
613 1 -2.7918421875 5.6966937500 -3.2490092000
614 1 -2.7672381250 5.1922231250 -2.3837508400
615 1 -2.2462662500 5.7554559375 -4.0577320800
616 1 -2.2451643750 4.6174340625 -4.1108611840
617 1 -6.7185423019 4.5422915625 -4.8411856080
618 1 -6.6856034500 5.7436981250 -4.8095697760
619 1 -2.7896787500 2.3476253125 -6.4759759457
620 1 -5.0276003125 4.8671028125 -6.4558339950
621 1 -2.8083031250 5.7113943750 -6.4622431627
622 1 0.5609484375 6.7069250000 -2.4842583600
623 1 -2.2266206250 6.3191993750 -4.8705736960
624 1 -1.6427209375 6.3118087500 -5.6884627064
625 1 -1.1239393750 6.3858359375 -4.8242573440
626 1 -0.5798281250 6.5042606250 -5.6475369768
627 1 0.0278693750 6.5305443750 -4.8890562000
628 1 0.5598062500 6.7065621875 -5.7132748528
629 1 -1.6959871875 6.3186215625 -2.3939440640
630 1 -0.5296525000 6.5096356250 -2.4093958000
631 1 1.1516475000 2.2607115625 -4.8168488000
632 1 -2.2163678125 2.3388640625 -4.0099521520
633 1 -1.0995771875 2.4874021875 -4.0226580640