ITEM: TIMESTEP
193000
ITEM: NUMBER OF ATOMS
2304
ITEM: BOX BOUNDS pp pp pp
-6.7187500000 6.7187500000
-6.7187500000 6.7187500000
-6.4760000000 6.4760000000
ITEM: ATOMS id type x y z
1 1 -5.5925450625 -6.2418329688 -4.0258313040
2 1 -3.9458815625 -5.4201459688 -5.7130132224
3 1 -4.5343634375 -6.6398603188 -4.8795882880
4 1 -3.9375906250 -6.5523668750 -5.6152036040
5 1 -4.3908240625 -6.0964445938 -4.0224249280
6 1 -3.2978715625 -4.7908718750 -4.0052246720
7 1 -3.3210781250 -6.4717203750 -4.9224723600
8 1 -6.1208672500 -5.7764883125 -5.6338376464
9 1 -5.0253293750 -5.5417298125 -5.6832922680
10 1 -6.1171383438 -4.1192790625 -6.4175886818
11 1 -5.5762547813 -4.4926265625 -4.8633335280
12 1 -4.4740559375 -5.5435035625 -4.8261094800
13 1 -4.4965100000 -4.9784325000 -4.0015074480
14 1 -3.9557984375 -3.7332734375 -3.2183129600
15 1 -3.2951303125 -5.9147669063 -4.0945546160
16 1 -2.8228693750 -5.2677956250 -5.6100797928
17 1 -6.1285199063 -4.6860325000 -5.6615277272
18 1 -6.6990287219 -4.1836581250 -4.0262198640
19 1 -4.4061696875 -4.4453131250 -4.8388542480
20 1 -5.5698894375 -3.9283053125 -4.0816026160
21 1 -3.8797690625 -4.2734609375 -5.6879472168
22 1 -3.4070646875 -5.3324703125 -4.8554587120
23 1 -4.4771600000 -3.8620853125 -4.0820429840
24 1 -3.3314384375 -4.2328662500 -4.8221720720
25 1 -3.8902637500 -4.8701396875 -3.2802364720
26 1 -2.8039090625 -4.1402953125 -5.7117581736
27 1 -3.8662106250 -4.3114756250 -2.4599345040
28 1 -6.6996637781 -3.6503909375 -4.8379087520
29 1 -5.6008118125 -3.3589315625 -4.9052202960
30 1 -5.5866661563 -2.8502415625 -4.0111955440
31 1 -4.9936706250 -2.8311334375 -3.2418985520
32 1 -4.9992471875 -3.3646290625 -5.6737583008
33 1 -4.4565468750 -3.2917978125 -4.8463793600
34 1 -4.4822259375 -2.7096987500 -4.1097084560
35 1 -3.8709137500 -3.1860446875 -5.6172267064
36 1 -3.2864496875 -3.1410021875 -4.8465606880
37 1 -3.9314228125 -2.6288856250 -3.2642666560
38 1 -2.7509518750 -2.9764196875 -5.6783394232
39 1 -6.1623407500 -6.3516885625 -3.2612358880
40 1 -4.9930793750 -6.1520919688 -3.2968797920
41 1 -5.0940621875 -6.6952642063 -2.4188766640
42 1 -3.8253875000 -5.9630075313 -3.2119146720
43 1 -3.9234678125 -6.5194355938 -2.4026089520
44 1 -2.7271137500 -4.7059065625 -3.2228979680
45 1 -2.7873809375 -5.7808528125 -3.1491233760
46 1 -6.1342308438 -5.2342825000 -3.2003744400
47 1 -6.1073813750 -5.8016164375 -2.4258577920
48 1 -5.5474635938 -5.6879647500 -4.8322746320
49 1 -4.9842240625 -5.6205098438 -2.4626026160
50 1 -5.6085491250 -5.0899234375 -4.1052659200
51 1 -6.1174474063 -4.1219934375 -3.2646552160
52 1 -6.1613880313 -4.6404928125 -2.4055490560
53 1 -5.0233943750 -3.9314900000 -3.2246076320
54 1 -5.0841184375 -5.0287559375 -3.2449293200
55 1 -2.8439931250 -4.1351084375 -2.4292900720
56 1 -3.3659593750 -3.6740678125 -3.9904593920
57 1 -6.1651639688 -3.0155093750 -3.2419503600
58 1 -6.1163845000 -3.5638803125 -2.4290828400
59 1 -5.0442493750 -3.3574534375 -2.4089165760
60 1 -3.8589946875 -3.1500456250 -2.4199257760
61 1 -2.8253821875 -2.4423193750 -3.2248796240
62 1 -2.7652762500 -3.5828137500 -3.2537625840
63 1 -2.8254493750 -5.2144756250 -2.3314765680
64 1 -2.2668793750 -4.0601406250 -4.8463275520
65 1 -6.6142242563 -2.4990390625 -4.9442705760
66 1 -6.1223279063 -2.9483621875 -6.4015958113
67 1 -6.1293651250 -2.4316365625 -2.4766943920
68 1 -5.0452034375 -2.2527162500 -2.4631466000
69 1 -3.3597243750 -2.5682825000 -4.0860969600
70 1 -2.7208250000 -6.4008644375 -5.6353245360
71 1 -2.7339131250 -6.3974849063 -2.4265701520
72 1 -2.2781265625 -5.7534335938 -4.0863171440
73 1 -3.9641834375 -5.3952610625 -2.4251195280
74 1 -4.9878118750 -4.4844028125 -2.4176591760
75 1 -2.8019875000 -3.0140312500 -2.4508292480
76 1 -4.9890481250 -4.4587909375 -5.6227598008
77 1 -6.1597110313 -3.4923659375 -5.6943196008
78 1 -2.7775043750 -3.5523375000 -6.4613345799
79 1 -2.2610071875 -2.4302793750 -4.0214535280
80 1 -6.6763041625 -5.2865946875 -4.0458162400
81 1 -6.6927909000 -5.8374246875 -4.8603545680
82 1 -6.7133786819 -4.7273393750 -4.8742650160
83 1 -5.6660226563 -2.3194737500 -4.9463299440
84 1 -5.0647146875 -2.2457018750 -5.6606521720
85 1 -5.0942503125 -6.6835515438 -5.6940786936
86 1 -3.8621121875 -6.0142527813 -6.4433219745
87 1 -2.7957928125 -5.8284578438 -6.4360876349
88 1 -2.7338862500 -4.7373368750 -6.4615981531
89 1 -4.9993681250 -2.8180453125 -6.4691964957
90 1 -2.1953381250 -4.6535540625 -4.0886355520
91 1 -1.6717862500 -4.6540512500 -3.1988461040
92 1 -1.0597081250 -6.2982677813 -4.8315752240
93 1 -2.1455656250 -6.3407826875 -4.8514824480
94 1 -1.6029325000 -6.3287131250 -5.6811513024
95 1 -2.2089637500 -5.1987268750 -4.9130433040
96 1 -1.0546153125 -5.2000706250 -4.8386211120
97 1 -1.1592396875 -5.7495353750 -4.0175938320
98 1 0.0300596875 -6.4449676563 -4.8420145360
99 1 0.0164340625 -5.3418900000 -4.8382843600
100 1 0.0366171875 -5.8826351563 -4.0165317680
101 1 1.1411662500 -6.0592670625 -4.0583926320
102 1 0.5986675000 -6.4975539688 -5.6847726816
103 1 0.6102909375 -5.9908648125 -3.2279751520
104 1 1.1163068750 -6.6304175188 -4.8621419440
105 1 -1.6114787500 -5.2080525000 -5.6420531000
106 1 -0.5257690625 -4.1128021875 -5.6316358064
107 1 -1.1262237500 -4.6168696875 -4.0472927680
108 1 -0.5148712500 -5.2461075000 -5.7021063432
109 1 -0.0059662500 -4.7596296875 -4.0430315600
110 1 0.5787665625 -5.3947934375 -5.6543018064
111 1 1.1418515625 -5.4950949688 -4.8399681200
112 1 1.7441606250 -5.0396000000 -6.4561554637
113 1 1.1163606250 -4.9433203125 -4.0062090240
114 1 -2.1787025000 -3.5337265625 -3.9953034400
115 1 -1.6957721875 -4.0676925000 -5.6475939656
116 1 -1.1138612500 -4.0790068750 -4.8913357520
117 1 -1.6105381250 -3.5302596875 -3.2030814080
118 1 0.0536425000 -4.2215787500 -4.8690453600
119 1 1.1695596875 -3.8044384375 -4.0188242720
120 1 -0.0071756250 -3.6720521875 -4.0535485840
121 1 0.5914381250 -4.2982262500 -5.6961691464
122 1 1.1054225000 -3.2890431250 -4.8569222880
123 1 1.1309940625 -4.3933637500 -4.8141418320
124 1 -2.1926909375 -2.9837700000 -4.8425714720
125 1 -1.6819450000 -2.3652418750 -6.4653298575
126 1 -1.6478943750 -2.9404743750 -5.6890584984
127 1 -1.0844062500 -2.9525546875 -4.8657944080
128 1 -1.1426040625 -2.4231843750 -4.0071674720
129 1 -0.5279325000 -3.0013596875 -5.6871882296
130 1 0.0177106250 -3.0867012500 -4.8310441920
131 1 0.5604378125 -3.1521284375 -5.6742012592
132 1 1.1603415625 -2.6848528125 -4.0832734240
133 1 1.6752128125 -2.8021084375 -3.1816588000
134 1 1.7020475000 -3.3446878125 -5.5962457616
135 1 -1.7267725000 -5.7613818750 -3.2454992080
136 1 -0.5488009375 -5.7981200000 -3.2869067520
137 1 -0.5288328125 -6.3255674063 -2.4343154480
138 1 0.5665787500 -5.4038785313 -2.4608022880
139 1 0.6031556250 -6.5449144375 -2.4193170320
140 1 1.6946568750 -6.1218051875 -3.2004003440
141 1 -1.6111293750 -5.2252659375 -2.4078933680
142 1 -0.5637300000 -4.6797034375 -3.2275865920
143 1 -0.5378359375 -4.1291690625 -2.4194854080
144 1 0.5657859375 -4.8304318750 -3.2200614800
145 1 1.7380465625 -5.0280034375 -3.2855467920
146 1 1.6895909375 -5.5541662188 -2.4215836320
147 1 -1.6960140625 -2.9324521875 -2.4744925520
148 1 -1.6993331250 -4.0894075000 -2.4140585200
149 1 -1.0852528125 -3.5295071875 -4.0619285280
150 1 -0.5228262500 -3.5452559375 -3.1970587280
151 1 0.5789950000 -3.7098518750 -3.2700173440
152 1 0.5878100000 -4.2560056250 -2.4335253760
153 1 1.7405190625 -3.9381550000 -3.2372876400
154 1 1.6392675000 -4.4970743750 -2.4060671360
155 1 -1.6890131250 -2.3513609375 -3.2096869280
156 1 0.0511431250 -2.5265993750 -4.0431610800
157 1 -0.5600750000 -2.9715015625 -2.4008733840
158 1 0.6074421875 -2.6344353125 -3.2329098640
159 1 0.5458850000 -3.1883693750 -2.3852403200
160 1 2.2386471875 -6.3265886563 -4.0303904080
161 1 1.6837187500 -5.5985059375 -5.6733684456
162 1 2.2230865625 -5.6987873125 -4.8129372960
163 1 2.1972462500 -4.5643559375 -4.8385045440
164 1 1.7257378125 -2.2674168750 -5.6585125016
165 1 -0.5322459375 -2.4550446875 -3.2875154960
166 1 1.6727134375 -3.3942990625 -2.4208453680
167 1 -0.5095096875 -6.3713919688 -5.6845304792
168 1 -1.6266631250 -6.3179900000 -2.4340175520
169 1 -0.5352021875 -5.2645168750 -2.4276451680
170 1 1.6639387500 -4.4592075000 -5.6820553520
171 1 2.2177115625 -2.8489784375 -4.0429020400
172 1 1.7218812500 -6.6898607188 -5.6303716912
173 1 -1.7273503125 -5.7429026250 -6.4594676786
174 1 -0.5714296875 -4.6550993750 -6.4657726345
175 1 -1.6675131250 -4.6314090625 -6.4455283477
176 1 -1.6192053125 -3.5171446875 -6.4639172087
177 1 1.7536071875 -3.8775115625 -6.4517609796
178 1 -0.5116328125 -2.4279143750 -6.4614686331
179 1 0.6177487500 -2.5784412500 -6.4658624437
180 1 0.6188909375 -3.7235043750 -6.4669720415
181 1 6.7170971875 -3.0483775000 -4.0744013040
182 1 6.6938503125 -6.4041445313 -4.0564368800
183 1 2.2909325000 -3.3955487500 -4.8671673200
184 1 2.3121906250 -5.1438078125 -4.0412959920
185 1 6.2071171875 -5.9734619063 -5.7094436512
186 1 6.1996862500 -4.2164187500 -6.4696702799
187 1 6.1760765625 -4.8132453125 -5.6978878768
188 1 3.9747453125 -6.3986270938 -6.4645455880
189 1 3.3999293750 -6.3695228125 -4.0424487200
190 1 4.4901675000 -6.4930416563 -4.0811104400
191 1 5.0572568750 -6.5670903438 -6.4356997225
192 1 5.5774628125 -6.5503969375 -4.0439770560
193 1 3.4022137500 -4.6625168750 -4.8876185280
194 1 2.7666468750 -5.7524728125 -5.6547590120
195 1 3.4220878125 -5.2484187500 -4.0996965600
196 1 3.9238306250 -5.8724898438 -5.6049702288
197 1 4.5349681250 -5.9462321563 -4.8936800640
198 1 5.0912940625 -4.8376343750 -5.6940230000
199 1 4.4801834375 -5.3894936875 -4.0723419360
200 1 5.0961718750 -5.9804090938 -5.6671812752
201 1 5.6627103125 -5.9821425313 -4.8679444400
202 1 5.6142412500 -5.4525518438 -4.0024140880
203 1 2.8029550000 -4.0802028125 -3.1855184960
204 1 3.3306053125 -4.1419884375 -4.0443915200
205 1 3.3273668750 -5.8296873750 -4.8587873760
206 1 3.4273821875 -3.5484003125 -4.8429341280
207 1 3.9867987500 -4.7809415625 -5.6411840208
208 1 4.5555946875 -4.8114312500 -4.8495655520
209 1 4.4790278125 -4.2655865625 -4.0171664160
210 1 5.6413043750 -4.9154240625 -4.8400976400
211 1 5.6063400000 -4.3249534375 -4.0546495040
212 1 6.1841256250 -5.3868451563 -6.4511486090
213 1 2.2855440625 -3.9736165625 -4.0864855200
214 1 2.7954434375 -2.9743234375 -6.4647020481
215 1 2.8072953125 -4.0957365625 -6.4637043556
216 1 3.9513909375 -3.6444918750 -5.7288081864
217 1 3.9645328125 -3.0463081250 -6.4473260853
218 1 3.3492700000 -2.4755771875 -4.8642142640
219 1 4.5251990625 -3.1353450000 -4.0339004000
220 1 4.5136428125 -2.6160931250 -4.9013735520
221 1 5.1165565625 -2.6088234375 -5.6553211288
222 1 5.5991509375 -3.7736262500 -4.8697059120
223 1 5.6289418750 -3.1919840625 -4.0934148400
224 1 6.1679871875 -3.6852209375 -5.6465085880
225 1 2.8340225000 -6.2885000625 -3.2523508160
226 1 3.9645865625 -6.4332743438 -3.2286357040
227 1 5.0391028125 -6.5623321250 -3.2128990240
228 1 6.1562293750 -6.5407716563 -3.2268742320
229 1 2.7655450000 -5.7728561563 -2.4020390640
230 1 3.9439062500 -5.3304143750 -3.1959189520
231 1 3.9206593750 -5.8935746250 -2.3947470880
232 1 5.0279631250 -5.4221884688 -3.2448775120
233 1 5.0862684375 -5.9800409063 -2.4318934240
234 1 6.1961656250 -5.3897557188 -3.2358888240
235 1 6.1829700000 -5.9454312813 -2.4397682400
236 1 2.7806621875 -4.6635381250 -2.4219074320
237 1 2.8799921875 -5.2146771875 -3.2374689680
238 1 3.9022768750 -4.2092565625 -3.2486335920
239 1 3.9693031250 -4.7568615625 -2.4199257760
240 1 5.0426906250 -4.2955387500 -3.2365364240
241 1 5.0895471875 -4.8623862500 -2.4361416800
242 1 6.1619403125 -4.2579137500 -3.2538921040
243 1 6.1863696875 -4.8159865625 -2.4390688320
244 1 3.3707162500 -3.0149853125 -4.0007562320
245 1 2.7799096875 -2.9361609375 -3.2541511440
246 1 6.1733756250 -3.1641550000 -3.2319902720
247 1 3.9603806250 -3.6443575000 -2.4400920400
248 1 3.9554490625 -3.0825087500 -3.2464188000
249 1 5.0620003125 -3.7292959375 -2.4365690960
250 1 5.0935381250 -3.1651762500 -3.2428958560
251 1 6.2120890625 -3.7190834375 -2.4215836320
252 1 2.8072415625 -2.3893218750 -5.7222816736
253 1 4.4739618750 -3.7025553125 -4.8349945520
254 1 3.9327934375 -2.4775793750 -5.6472857080
255 1 5.6658278125 -2.6086890625 -4.8549665360
256 1 6.2454812500 -2.5965684375 -5.6502892768
257 1 2.2972078125 -2.2588034375 -4.8298655600
258 1 2.8490993750 -3.4841287500 -2.4389393120
259 1 3.9141556250 -2.5245568750 -2.4444050560
260 1 5.0680068750 -2.6098984375 -2.4035674000
261 1 6.1974556250 -2.6046846875 -2.4121286720
262 1 2.8285937500 -2.3591009375 -2.4529533760
263 1 2.7885365625 -4.6360181250 -5.5924598920
264 1 2.8548775000 -3.5363200000 -5.6497297504
265 1 5.0386459375 -3.7394950000 -5.6628164512
266 1 5.0795093750 -3.1686968750 -6.4677748065
267 1 6.1686590625 -6.5645546875 -6.4727403572
268 1 5.0120934375 -5.4189634688 -6.4682661924
269 1 2.8835934375 -5.1753053125 -6.4355713682
270 1 3.9082431250 -4.2455915625 -6.4608627386
271 1 -3.9161443750 -2.0987090625 -2.3472909600
272 1 -6.1257343125 -2.1178440625 -6.1130085432
273 1 -5.5302783750 -1.7938928125 -4.0512431280
274 1 -4.5072600000 -2.1383228125 -4.8589816560
275 1 -3.9065231250 -1.5369812500 -6.4437218027
276 1 -4.4288790625 -1.5625662500 -4.0519943440
277 1 -3.9345000000 -2.1020146875 -5.6503346088
278 1 -3.3643871875 -1.9818028125 -4.8518580560
279 1 -2.7874615625 -1.3631671875 -6.4709032455
280 1 -3.3191431250 -1.4015581250 -4.0784164240
281 1 -6.6683361281 -1.4198465625 -4.8381548400
282 1 -6.1099546563 -1.3270606250 -5.7295568120
283 1 -5.5895700000 -1.2005465625 -4.8117457120
284 1 -5.6169636875 -0.6499987500 -4.0328642400
285 1 -5.0187718750 -1.1367050000 -5.6531710968
286 1 -4.4817018750 -1.0128784375 -4.8595774480
287 1 -4.4561706250 -0.4671009375 -4.0209613520
288 1 -3.9038356250 -0.9597600000 -5.6650662136
289 1 -3.3719525000 -0.8299671875 -4.8645251120
290 1 -2.7563940625 -0.2133740625 -6.4525230753
291 1 -3.3254721875 -0.2870250000 -4.0138766080
292 1 -2.7831750000 -0.7826134375 -5.6703894856
293 1 -6.6847610531 -0.3437178125 -4.9201150960
294 1 -6.0986389375 -0.1970609375 -5.6543821088
295 1 -5.5306828438 -0.0861343750 -4.8648230080
296 1 -5.1191768750 0.5588118750 -6.4409890602
297 1 -5.6640795938 0.4593475000 -4.0608794160
298 1 -4.9818859375 -0.0320887500 -5.7167200848
299 1 -4.4649050000 0.1084137500 -4.8149319040
300 1 -4.5423856250 0.6628584375 -4.0214276240
301 1 -3.9347150000 0.1548134375 -5.6938002256
302 1 -3.3784025000 0.2565084375 -4.8486848160
303 1 -3.3689425000 0.8066800000 -4.0237201280
304 1 -2.8335253125 0.3526403125 -5.6576175184
305 1 -6.1375203438 1.5097837500 -3.2563788880
306 1 -6.2862210625 0.9421165625 -5.6338272848
307 1 -5.6203391875 0.9859496875 -4.9502025920
308 1 -5.0327871875 1.6927621875 -6.4298480089
309 1 -5.5786762188 1.5278840625 -4.1095271280
310 1 -5.0268075000 1.1194915625 -5.6380224376
311 1 -4.4228590625 1.2054109375 -4.8807151120
312 1 -3.9825525000 1.8634587500 -6.4332450594
313 1 -4.5451537500 1.7508256250 -4.0601670560
314 1 -3.8796346875 1.2667128125 -5.7102117048
315 1 -3.3521053125 1.3831218750 -4.8136367040
316 1 -2.8151831250 1.4416556250 -5.6779754720
317 1 -6.1225603750 -1.8446059375 -3.2745505440
318 1 -4.9859171875 -1.6815015625 -3.2354614080
319 1 -3.8590350000 -1.5827896875 -3.2460561440
320 1 -2.7756500000 -1.3507912500 -3.2133912000
321 1 -6.1724323125 -0.7312553125 -3.2251127600
322 1 -6.1263255625 -1.3106400000 -2.4380844800
323 1 -5.0477834375 -0.5618890625 -3.2647717840
324 1 -5.0131550000 -1.1166696875 -2.4466198480
325 1 -3.8927362500 -0.4350793750 -3.2297236720
326 1 -3.9199875000 -1.0183206250 -2.4480575200
327 1 -2.7398928125 -0.2596259375 -3.2367695600
328 1 -2.8240787500 -0.7895875000 -2.3790622160
329 1 -6.1132240000 -0.1732228125 -2.4145636480
330 1 -5.0988325000 0.5456834375 -3.2275088800
331 1 -4.9957131250 -0.0131956250 -2.4332274800
332 1 -3.9517134375 0.7170787500 -3.2593708000
333 1 -3.9009062500 0.1417387500 -2.4670969600
334 1 -6.2157790000 2.0626831250 -2.4161956000
335 1 -6.2018496875 0.4008943750 -3.2021229600
336 1 -5.0834196875 1.7032703125 -3.1874483440
337 1 -5.0047834375 1.1128131250 -2.4372555520
338 1 -2.8365353125 2.0193337500 -3.2730481120
339 1 -3.8767859375 1.2709859375 -2.4477596240
340 1 -2.7950134375 0.8906509375 -3.2384662720
341 1 -2.7919900000 1.4616640625 -2.4563986080
342 1 -2.7831481250 -1.8821234375 -5.6182097632
343 1 -2.2496390625 0.3949415625 -4.8716875680
344 1 -2.2593275000 1.5195931250 -4.8277932400
345 1 -2.2438609375 2.0716056250 -4.0211038240
346 1 -6.6873737063 1.3892359375 -4.0809809200
347 1 -6.1916775000 2.0326368750 -5.7051293400
348 1 -5.6654663438 2.1329075000 -4.8355903440
349 1 -3.4351759375 1.9404287500 -4.0168037600
350 1 -6.1740743750 0.9687362500 -2.3994227600
351 1 -3.9949015625 1.8462856250 -3.2191159840
352 1 -2.7792109375 -1.8890303125 -2.3868981760
353 1 -2.8083837500 0.3101912500 -2.4501946000
354 1 -2.2516412500 -0.7434968750 -4.8425844240
355 1 -6.7091755259 -1.9738612500 -4.0232797600
356 1 -6.7141703119 0.2305606250 -4.1230360640
357 1 -6.1621821875 -0.7961450000 -6.4717169031
358 1 -6.1900999375 0.3566581250 -6.4231607618
359 1 -2.1859050000 -1.8854693750 -4.8650302400
360 1 1.6942403125 -1.6564540625 -3.2562882240
361 1 -1.6514821875 0.9578787500 -3.2524544320
362 1 -2.2369003125 -1.3207987500 -4.0675108400
363 1 -1.6489021875 -1.7961234375 -5.6859875792
364 1 -1.1001281250 -1.3024162500 -4.0229430080
365 1 -0.5496340625 -1.8599515625 -5.6920944472
366 1 -0.5334687500 -1.3538953125 -3.2398262320
367 1 -1.0897678125 -1.8783475000 -4.8397220320
368 1 -0.0132493750 -1.9725846875 -4.8407840960
369 1 0.0325590625 -1.3922728125 -4.0625761280
370 1 0.5811181250 -2.0501593750 -5.6059960272
371 1 1.1696806250 -2.1233937500 -4.8568316240
372 1 1.7044528125 -1.7045871875 -6.4680042512
373 1 1.1250143750 -1.5660062500 -4.0440806720
374 1 -2.2092996875 -0.1591403125 -4.0716554800
375 1 -1.6748903125 -0.6762018750 -5.6527682896
376 1 -1.1262640625 -0.7712318750 -4.8492935600
377 1 -0.5741843750 -0.2197300000 -3.2283119040
378 1 -0.5461000000 -0.7481462500 -5.6174999936
379 1 0.0368456250 -0.8310556250 -4.8485293920
380 1 0.5817228125 -0.9822275000 -5.6733723312
381 1 0.0060200000 -0.2765706250 -4.0270487920
382 1 1.1437865625 -0.9871053125 -4.8329610880
383 1 1.7294868750 -0.5085556250 -6.4191051020
384 1 1.1805112500 -0.4428462500 -4.0105997520
385 1 1.6656990625 -1.1236168750 -5.7136517560
386 1 -1.6742721875 0.9662771875 -6.4736421920
387 1 -2.2390100000 0.9412162500 -4.0444174240
388 1 -1.6674862500 0.4220181250 -5.6269290496
389 1 -1.1009746875 -0.1740559375 -4.0906560640
390 1 -0.5462478125 0.8912959375 -6.4651026664
391 1 -1.0970778125 0.4172209375 -4.8247365680
392 1 -0.5579653125 0.3194362500 -5.6698144168
393 1 0.0096212500 0.2935556250 -4.8345282800
394 1 0.5821528125 0.7676037500 -6.4230800708
395 1 0.0385521875 0.8402737500 -4.0199251920
396 1 0.5371506250 0.1604034375 -5.7027358104
397 1 1.0904800000 0.0848040625 -4.8942110960
398 1 1.6969681250 0.0572840625 -5.6254745400
399 1 1.1352806250 0.6313878125 -4.0609441760
400 1 -1.7206584375 1.5318078125 -5.6681772840
401 1 -1.1036353125 0.9895509375 -4.0521497680
402 1 -1.1507606250 1.5463337500 -4.8540987520
403 1 -0.5984525000 1.4487909375 -5.6777280888
404 1 -0.0179121875 1.3672925000 -4.9107378480
405 1 0.4946075000 1.8847437500 -6.4558468175
406 1 -0.0140153125 1.9074665625 -4.0663710640
407 1 0.5948646875 1.3316293750 -5.6376014976
408 1 1.1602743750 1.1973618750 -4.8766222800
409 1 1.7503553125 1.1671140625 -5.6569440144
410 1 1.6447768750 0.6079393750 -6.4628367529
411 1 -1.6884218750 -1.2025621875 -3.2430901360
412 1 -0.5296525000 -0.7977575000 -2.4478502880
413 1 0.5795593750 -1.5302356250 -3.2163313040
414 1 0.5549553125 -2.0963978125 -2.4103283440
415 1 1.6857478125 -1.0895528125 -2.4482388480
416 1 -1.6546937500 -0.6680587500 -2.3849812800
417 1 -0.5528725000 0.3424950000 -2.4272307040
418 1 -0.5394215625 0.8854909375 -3.2451754080
419 1 0.5780140625 -0.3936918750 -3.2586713920
420 1 1.7364743750 -0.5136081250 -3.2221078960
421 1 -1.7075031250 1.5182225000 -2.4394962480
422 1 -1.6499100000 -0.1242565625 -3.2416783680
423 1 -0.5551300000 2.0301912500 -3.1904532080
424 1 -1.7146250000 0.4210103125 -2.4008992880
425 1 -0.5786859375 1.4520025000 -2.4365561440
426 1 0.5950259375 0.7598503125 -3.1986259200
427 1 1.7001259375 0.6373137500 -3.2247760080
428 1 1.6847534375 0.0638281250 -2.4399366160
429 1 -1.6723103125 2.0775987500 -3.2466778400
430 1 0.5436946875 1.9178000000 -3.2242579280
431 1 1.0749328125 1.7482859375 -4.0748416720
432 1 1.7215184375 1.1797318750 -2.3881674720
433 1 2.2112481250 -1.1947953125 -4.8814792800
434 1 1.6669621875 1.6966053125 -3.3092360000
435 1 -1.6312184375 -1.7634837500 -2.4504147840
436 1 -0.5505478125 -1.9216296875 -2.4205345200
437 1 1.7313278125 -2.2090712500 -2.4473581120
438 1 0.5810643750 -0.9501253125 -2.4455577840
439 1 0.5648990625 0.1661009375 -2.4646878880
440 1 0.5855390625 1.3486412500 -2.4454671200
441 1 -1.0881956250 2.0962634375 -4.0353769280
442 1 -0.5236996875 -1.2756756250 -6.4715027418
443 1 0.5924996875 -0.4109456250 -6.4682145658
444 1 2.2189612500 0.4878618750 -4.1076231840
445 1 1.6767581250 2.2163409375 -2.4164934960
446 1 -1.6582815625 -1.2235515625 -6.4751669377
447 1 -1.6554462500 -0.1165031250 -6.4703065080
448 1 -0.5649931250 2.0547012500 -6.4225676897
449 1 6.6340668750 0.8155084375 -4.8654835600
450 1 2.2821578125 -0.6307965625 -4.0701530480
451 1 2.2860681250 1.0949009375 -4.8116939040
452 1 2.2682096875 1.6776450000 -4.0544034160
453 1 6.7063606250 -0.8552028125 -4.0261032960
454 1 6.6950328125 1.9946221875 -4.8225476800
455 1 2.2790537500 -0.0778165625 -4.8996897920
456 1 2.8655200000 -1.7788965625 -6.4273096759
457 1 2.8701828125 -1.8007996875 -3.2462374720
458 1 3.4409809375 -0.1955693750 -4.8175611600
459 1 3.9551534375 -1.9305925000 -6.4667840303
460 1 4.5059296875 -2.0470821875 -4.1063668400
461 1 5.6121584375 -2.0508178125 -4.0696738240
462 1 2.7802590625 -0.6651025000 -6.4673792913
463 1 2.8240921875 -0.6487893750 -3.2064618800
464 1 2.8147934375 -1.2147634375 -5.6388513656
465 1 3.9163862500 -0.8588846875 -3.2856504080
466 1 3.3743578125 -1.3637987500 -4.8685402320
467 1 3.9827406250 -1.3700875000 -5.6140832560
468 1 4.5592631250 -1.4518681250 -4.8456410960
469 1 5.0904206250 -1.4931481250 -5.6753060648
470 1 5.6741321875 -1.4893990625 -4.8776066320
471 1 6.1960446875 -0.8564659375 -6.4240677903
472 1 6.1562293750 -0.9136021875 -3.1875260560
473 1 6.2053703125 -1.4720512500 -5.6962105928
474 1 2.8878531250 -0.1054306250 -5.6347947992
475 1 3.3312771875 -0.8057796875 -4.0842836800
476 1 3.3730678125 0.3939875000 -4.0815119520
477 1 3.9331831250 -0.3211428125 -5.7154779880
478 1 4.4914037500 -0.3071946875 -4.8239205920
479 1 4.4885012500 0.2758718750 -4.0132419600
480 1 6.1505453125 -0.3179178125 -5.6084413648
481 1 5.5660275000 -0.4157159375 -4.8508218960
482 1 5.6282834375 -0.9438634375 -4.0261421520
483 1 2.8178975000 0.9738290625 -5.7012009984
484 1 3.3742234375 0.9502059375 -4.8687345120
485 1 3.4224237500 1.4957818750 -4.0351956000
486 1 3.9533393750 0.8237993750 -5.6598763472
487 1 4.4645153125 1.2680565625 -4.0698422000
488 1 4.5810587500 0.7504171875 -5.0521607360
489 1 5.0362406250 1.3225725000 -3.2462633760
490 1 5.0181000000 -0.3317315625 -5.7101106792
491 1 5.5060962500 0.7209353125 -4.8974231920
492 1 6.1824728125 1.2942731250 -3.3013870880
493 1 5.9742721875 0.7579825000 -5.6722714112
494 1 2.2853559375 -1.7284925000 -3.9940341440
495 1 3.4442193750 -1.9271256250 -4.0511136080
496 1 5.0635993750 -2.0682596875 -3.2384144640
497 1 6.1659312500 -2.0593909375 -3.2423907280
498 1 2.8179109375 -0.0894937500 -2.3827405840
499 1 2.8035596875 -1.2284562500 -2.4446252400
500 1 3.9985968750 -1.9411409375 -3.2074332800
501 1 3.9347015625 -1.3814556250 -2.3978555680
502 1 4.4836637500 -0.8788393750 -4.0582631120
503 1 5.0704256250 -1.5140300000 -2.3853698400
504 1 5.0397612500 -0.9898734375 -3.2500712640
505 1 6.2050612500 -1.5120278125 -2.4338362240
506 1 2.8158146875 1.4790253125 -3.2694863120
507 1 2.7844784375 0.4232678125 -3.3007653920
508 1 3.8895246875 0.2135084375 -3.2478953280
509 1 3.9354137500 -0.3243006250 -2.4069478720
510 1 5.0735296875 0.1436468750 -3.2660281280
511 1 5.0113275000 -0.4164550000 -2.4619420640
512 1 5.6543790625 0.1600271875 -4.0538335280
513 1 3.9388940625 1.4279225000 -3.1787575520
514 1 3.9217075000 0.7908506250 -2.5062897120
515 1 5.5920559375 1.2742781250 -4.0420731120
516 1 6.1961790625 0.2213828125 -3.2211883040
517 1 6.1111196875 0.7833256250 -2.3981146080
518 1 2.7361437500 2.1162450000 -5.6862051728
519 1 3.3344484375 2.0292506250 -4.9229386320
520 1 3.9218150000 2.0098468750 -5.6421916864
521 1 4.4908796875 1.8538375000 -4.8506923760
522 1 5.0695253125 1.7701890625 -5.6573092608
523 1 5.6348275000 1.8576134375 -4.8464959280
524 1 6.1883718750 1.8438803125 -5.7005067712
525 1 3.9003956250 2.0019859375 -2.4216095360
526 1 5.0482806250 1.8495509375 -2.4061966560
527 1 6.1691831250 1.8372690625 -2.4571498240
528 1 6.1488521875 -0.3434893750 -2.4092144720
529 1 2.8103590625 0.9516975000 -2.4027255200
530 1 5.0363481250 0.7143912500 -2.4889210800
531 1 2.7743465625 2.0609496875 -2.4932988560
532 1 5.0969512500 -0.9250912500 -6.4637376681
533 1 5.0409706250 -2.0581815625 -6.4750651752
534 1 5.0741209375 0.2823487500 -6.3331342592
535 1 3.9411246875 1.4233403125 -6.4400887667
536 1 5.0078068750 1.2172493750 -6.3651433139
537 1 -4.4955290625 2.3025425000 -4.9117999120
538 1 -6.6879066375 6.4623356250 -4.8353831120
539 1 -5.6193367500 6.6144481250 -4.8097381520
540 1 -3.3950784375 6.4452834375 -4.0477849440
541 1 -6.1537192500 6.5799271875 -5.6960642352
542 1 -3.9149215625 3.0075140625 -3.1827467680
543 1 -6.1231328125 2.5917309375 -3.3043271920
544 1 -5.5446712813 2.7072262500 -4.0554395760
545 1 -5.1061962500 2.2611415625 -5.6310749848
546 1 -4.4168121875 2.8532515625 -4.0820559360
547 1 -3.9046418750 2.4247565625 -5.6269497728
548 1 -3.3102475000 2.4773912500 -4.8707679760
549 1 -2.8188112500 3.1302521875 -6.4311156211
550 1 -2.7565687500 2.5336003125 -5.6827936160
551 1 -6.1148311250 3.1428431250 -5.7008033720
552 1 -5.5960818125 3.2944853125 -4.8070441360
553 1 -5.6591735625 3.8692743750 -4.0204303200
554 1 -5.0623765625 3.3319759375 -5.7137191064
555 1 -4.5423453125 3.4490165625 -4.8131445280
556 1 -3.8810456250 4.1047934375 -3.2673751360
557 1 -4.0020503125 3.5418965625 -5.6440230992
558 1 -3.4060434375 3.6000406250 -4.8939650080
559 1 -2.7680040625 4.2253412500 -6.4452278613
560 1 -3.3166303125 4.1523756250 -4.0654514720
561 1 -2.8185962500 3.6869812500 -5.6069972168
562 1 -6.2098839688 5.4553696875 -5.6680736680
563 1 -6.6644405969 4.7460981250 -4.0702437120
564 1 -6.1940666875 3.7386887500 -6.4384252118
565 1 -6.1533389688 4.3023784375 -5.6289132960
566 1 -5.6083072500 4.9332959375 -4.0811233920
567 1 -5.5399480000 4.3875721875 -4.9203870880
568 1 -4.4709115625 4.0211315625 -4.0287196000
569 1 -3.8424531250 5.7457003125 -5.6639458656
570 1 -4.4358800000 4.5919296875 -4.8238428800
571 1 -4.9649950000 4.4624996875 -5.6877373944
572 1 -3.3844896875 4.7526018750 -4.7979259280
573 1 -3.3819096875 5.3227550000 -4.0006008080
574 1 -2.8554687500 4.8227321875 -5.6673794408
575 1 -5.6207100625 5.4999284375 -4.9038085280
576 1 -5.5292786250 6.0364743750 -4.0507380000
577 1 -5.0345206250 5.6220350000 -5.6264407592
578 1 -4.4251568750 5.6790503125 -4.9115667760
579 1 -4.9794403125 6.1631362500 -6.4466538765
580 1 -4.4466165625 6.2309284375 -4.0891406800
581 1 -3.9271765625 6.3206775000 -6.4281664507
582 1 -3.2895537500 5.8684384375 -4.8296712800
583 1 -2.8152368750 6.5014925000 -3.2608732320
584 1 -2.7608284375 5.9111293750 -5.7352297880
585 1 -6.1352225313 3.1290562500 -2.4552847360
586 1 -4.9859978125 2.8176959375 -3.2592283280
587 1 -5.0862146875 2.2710046875 -2.4026219040
588 1 -3.9008121875 2.4096931250 -2.4321524640
589 1 -3.3754462500 3.0553381250 -4.0665782960
590 1 -2.8215256250 3.1174328125 -3.2198024400
591 1 -6.1880695313 3.7210587500 -3.2068892960
592 1 -5.0415753125 3.8828865625 -3.2980584240
593 1 -5.0834465625 3.3475903125 -2.4080099360
594 1 -3.9750678125 3.5659900000 -2.3963142800
595 1 -2.8098753125 3.6918456250 -2.4197833040
596 1 -2.8017993750 4.2762828125 -3.1755325040
597 1 -6.1475689063 4.9001456250 -3.1891709600
598 1 -6.1246458750 4.3005240625 -2.4398070960
599 1 -4.5562128125 5.1473687500 -4.0332916560
600 1 -5.0802618750 5.0298443750 -3.1768277040
601 1 -3.9620871875 5.1930831250 -3.2689941360
602 1 -3.9298371875 4.6534196875 -2.4216483920
603 1 -2.7717396875 5.3808184375 -3.2984081280
604 1 -2.8286340625 4.8702337500 -2.4125949440
605 1 -6.1530769375 6.5213396875 -2.4284611440
606 1 -6.1057272188 5.9953959375 -3.2796277280
607 1 -4.9856618750 6.1949696875 -3.2072908080
608 1 -5.0061137500 5.6142950000 -2.4288756080
609 1 -3.9319200000 6.3431853125 -3.1720613680
610 1 -3.8272687500 5.7509543750 -2.4441460160
611 1 -2.7619034375 5.9304390625 -2.4448972320
612 1 -2.2704403125 3.2402515625 -4.0308307760
613 1 -2.2703731250 4.3085462500 -4.0612420720
614 1 -2.2751434375 4.8639718750 -4.8857534400
615 1 -2.7785256250 2.5555840625 -2.4143046080
616 1 -4.9912787500 4.4160328125 -2.4541579120
617 1 -6.1934001875 5.4601534375 -2.3982959360
618 1 -5.0826403125 5.0447600000 -6.4284709522
619 1 -3.8992265625 4.6258459375 -5.7139315192
620 1 -6.1291232500 4.8665921875 -6.4300175506
621 1 -2.2534284375 5.9908943750 -4.7941439440
622 1 -6.6973145000 5.9010781250 -4.0467228800
623 1 -6.6780245656 3.0842153125 -4.8884992640
624 1 -3.8727009375 2.9865650000 -6.4409037066
625 1 -2.2393593750 6.5737862500 -4.0122187520
626 1 -2.2325465625 2.6477384375 -4.7938978560
627 1 -1.6317156250 6.5698087500 -3.2753535680
628 1 1.7126228125 6.7173390625 -2.4474746800
629 1 1.1460171875 2.3511728125 -4.7969156720
630 1 -1.6938237500 3.2217481250 -6.4638846992
631 1 -1.7069118750 2.6458034375 -5.6802368912
632 1 -1.1405884375 2.6359403125 -4.8946385120
633 1 -1.1494975000 3.1701750000 -4.0390812000