ITEM: TIMESTEP
13000
ITEM: NUMBER OF ATOMS
2304
ITEM: BOX BOUNDS pp pp pp
-6.7187500000 6.7187500000
-6.7187500000 6.7187500000
-6.4760000000 6.4760000000
ITEM: ATOMS id type x y z
1 1 -5.0131146875 -6.4127875313 -6.4492227762
2 1 -5.5559950625 -6.2909846563 -4.0402857360
3 1 -3.9510281250 -6.5848266344 -6.4640099580
4 1 -4.4765150000 -6.4772149688 -4.0770694160
5 1 -3.3934928125 -6.6041343063 -4.0475129520
6 1 -6.1393545625 -5.1245384375 -6.4618808953
7 1 -6.6606277063 -5.0094865625 -4.0507120960
8 1 -6.2217062813 -5.6966910625 -5.6756156176
9 1 -5.6487366563 -5.7595718438 -4.8994696080
10 1 -5.0788912500 -5.3361387500 -6.4711733854
11 1 -5.5873474375 -5.1994793750 -4.0880656640
12 1 -5.0396671875 -5.8649688750 -5.6097028896
13 1 -4.4295778125 -5.9206511875 -4.9029666480
14 1 -3.9363140625 -5.4531189063 -6.4563002670
15 1 -4.5286121875 -5.3844909063 -4.0605685680
16 1 -3.8626631250 -6.0220975938 -5.6711976904
17 1 -3.3099787500 -6.0209822813 -4.8270549760
18 1 -3.3999965625 -5.4599747188 -4.0245620080
19 1 -2.7738090625 -6.0013823438 -5.6838893552
20 1 -6.1394177188 -4.5775650000 -5.6237506288
21 1 -5.5489309688 -4.6210621875 -4.8760523920
22 1 -5.6498385313 -4.0832800000 -4.0325663440
23 1 -5.0131953125 -4.7550878125 -5.7033432592
24 1 -4.4585087500 -4.8007215625 -4.8433744960
25 1 -3.8782775000 -4.2811740625 -6.4662662741
26 1 -4.4644212500 -4.2602787500 -3.9912106080
27 1 -3.9247040625 -4.8695484375 -5.7023355936
28 1 -3.3725437500 -4.9268325000 -4.8670896080
29 1 -2.7960078125 -4.3412800000 -6.4739964940
30 1 -3.3493103125 -4.3427043750 -4.0875475840
31 1 -2.7933471875 -4.8907796875 -5.6339710520
32 1 -6.1112849688 -3.4662300000 -5.7192327728
33 1 -5.5762265625 -3.5133418750 -4.8189988320
34 1 -4.9787818750 -3.0116931250 -6.4655577868
35 1 -5.5782717500 -2.9573250000 -3.9898895040
36 1 -5.0624840625 -3.6031581250 -5.7185372504
37 1 -4.5227131250 -3.7285434375 -4.8694080160
38 1 -4.4429884375 -3.1799171875 -4.0446376080
39 1 -3.9412725000 -3.7337571875 -5.6493645040
40 1 -3.3809690625 -3.7699175000 -4.8669730400
41 1 -2.7755156250 -3.2567393750 -6.4740644661
42 1 -3.3349187500 -3.2115087500 -4.0704250400
43 1 -2.7928903125 -3.7873056250 -5.6218207808
44 1 -6.1591157500 -6.2666600938 -3.2978511920
45 1 -5.0246037500 -6.4564150625 -3.2133005360
46 1 -3.9452903125 -6.5471128125 -3.2096739760
47 1 -2.8227081250 -6.5185325938 -3.2593448960
48 1 -6.1288907813 -5.1711934375 -3.2141165120
49 1 -6.2085348438 -5.7367925938 -2.4227493120
50 1 -5.0651043750 -5.3009862500 -3.1796123840
51 1 -5.0553756250 -5.8868316875 -2.4278264960
52 1 -3.9828346875 -5.4330137188 -3.2437247840
53 1 -3.8619106250 -5.9767487188 -2.4157940880
54 1 -2.8154921875 -5.4068441875 -3.2891344960
55 1 -2.7891143750 -5.9621488750 -2.4338232720
56 1 -6.2030295000 -4.0156087500 -3.2095703600
57 1 -6.1799559688 -4.5994546875 -2.4339786960
58 1 -5.0785687500 -4.1902828125 -3.2715327280
59 1 -4.9933212500 -4.7058528125 -2.4207806080
60 1 -3.8814218750 -4.3089762500 -3.2351894160
61 1 -3.8779415625 -4.8728809375 -2.4362971040
62 1 -2.8022562500 -4.3066381250 -3.2321716000
63 1 -2.7764293750 -4.8891806250 -2.4279819200
64 1 -6.1909881563 -2.9024865625 -3.2668441040
65 1 -6.0989815938 -3.4469471875 -2.4297952000
66 1 -4.9994218750 -3.0220937500 -3.2389714000
67 1 -5.0262834375 -3.6082240625 -2.4822896560
68 1 -3.8722575000 -3.1682534375 -3.2284025680
69 1 -3.9556506250 -3.7355712500 -2.4494951920
70 1 -2.7828390625 -3.2492546875 -3.2373912560
71 1 -2.8020815625 -3.7728468750 -2.3619008160
72 1 -2.2407165625 -6.5510594063 -4.0278906720
73 1 -2.2656162500 -4.2524984375 -4.0954094480
74 1 -6.1852234688 -2.3195006250 -5.7045309576
75 1 -5.6336060313 -2.4409621875 -4.8878516640
76 1 -5.0277346875 -2.4599493750 -5.6247893792
77 1 -4.4794309375 -2.6136340625 -4.8338936320
78 1 -3.9116025000 -2.6291946875 -5.6526025040
79 1 -3.3602350000 -2.6229596875 -4.8438925760
80 1 -2.8045271875 -2.6860890625 -5.6931681680
81 1 -6.1290144063 -2.3420621875 -2.4754121440
82 1 -5.0221312500 -2.4594656250 -2.4447547600
83 1 -3.8966465625 -2.6122365625 -2.3926100080
84 1 -2.8045943750 -2.6854306250 -2.4214800160
85 1 -2.2645546875 -2.5227831250 -4.8635537120
86 1 -6.6422926406 -3.3490684375 -4.8589168960
87 1 -2.2300068750 -5.9785412813 -4.8162012000
88 1 -2.2292409375 -5.3954827813 -4.0456478640
89 1 -2.2051878125 -3.6720253125 -4.8623362240
90 1 -2.2389965625 -3.0960806250 -4.0807995920
91 1 -1.1145734375 -6.3240503125 -4.0004065280
92 1 0.0119190625 -6.0798506250 -4.0236812720
93 1 1.1081368750 -6.5256007188 -4.8477393200
94 1 1.1165890625 -5.9388885625 -4.0913295680
95 1 1.6786125000 -6.4063953125 -5.6255522520
96 1 -1.6944015625 -5.8343810938 -5.6623851496
97 1 -1.1135521875 -5.8057215938 -4.8768942720
98 1 -1.0968762500 -5.2447771875 -4.0564239280
99 1 -0.5780678125 -5.6577626250 -5.7183235424
100 1 -0.0128865625 -5.5549939688 -4.9063471200
101 1 0.5645631250 -4.9447715625 -6.4324661262
102 1 -0.0055765625 -5.0267000000 -3.9939952880
103 1 0.5645093750 -5.5511535313 -5.7077443488
104 1 1.0721781250 -5.3512693750 -4.8464182160
105 1 1.1165890625 -4.7986387500 -4.0167260480
106 1 1.6652421875 -5.3467946875 -5.6262387080
107 1 -2.2199018750 -4.8400262500 -4.8441257120
108 1 -1.7202418750 -4.2000921875 -6.4667175347
109 1 -1.6624740625 -4.7416368750 -5.6529185328
110 1 -1.0991740625 -4.6729846875 -4.8439443840
111 1 -1.1221521875 -4.1156912500 -4.0348847520
112 1 -0.5593225000 -4.5069912500 -5.6805386728
113 1 0.0110725000 -4.4998021875 -4.8767906560
114 1 0.0197531250 -3.9571018750 -4.0423969120
115 1 0.5442187500 -4.3484959375 -5.7057484456
116 1 1.1119665625 -4.2658150000 -4.8811036720
117 1 1.6901553125 -3.6491143750 -6.4287380225
118 1 1.1121412500 -3.7199434375 -4.0172311760
119 1 1.6697840625 -4.2508456250 -5.6879381504
120 1 -1.6520062500 -3.6255853125 -5.6580449344
121 1 -1.0750671875 -3.5481046875 -4.8432320240
122 1 -1.1496856250 -2.9760971875 -4.0615399680
123 1 -0.5341943750 -3.4112840625 -5.6861546600
124 1 0.0054556250 -3.3768706250 -4.8327020480
125 1 0.0075384375 -2.8155862500 -4.0308437280
126 1 0.5438156250 -3.2219496875 -5.6822444512
127 1 1.1173012500 -3.1923603125 -4.8804172160
128 1 1.1439075000 -2.6437206250 -4.0490153840
129 1 1.6556881250 -3.0465096875 -5.6994719064
130 1 -1.6821600000 -6.3904570938 -3.2167198640
131 1 -0.5348259375 -6.2844862813 -3.2188310400
132 1 0.5959262500 -6.1242924688 -3.2443335280
133 1 0.5403353125 -6.6572440094 -2.3764588640
134 1 1.6766909375 -5.8705346875 -3.2374430640
135 1 1.6819718750 -6.4149160313 -2.3884653680
136 1 -1.6655512500 -5.2515093750 -3.2536589680
137 1 -1.7075300000 -5.8217834375 -2.4462183360
138 1 -0.5685003125 -5.0914150000 -3.1876426240
139 1 -0.5535040625 -5.7063929375 -2.4729901200
140 1 0.5727868750 -4.9826250000 -3.2061380800
141 1 0.5619696875 -5.5644781563 -2.4358826400
142 1 1.7115209375 -4.8100203125 -3.2701986720
143 1 1.6681984375 -5.3207125000 -2.3779612960
144 1 -1.7166943750 -4.1465571875 -3.2750945280
145 1 -1.6984596875 -4.7015259375 -2.4357272160
146 1 -0.5653425000 -3.9408425000 -3.2459395760
147 1 -0.5844237500 -4.5061312500 -2.4468011760
148 1 0.5432243750 -3.7754806250 -3.1950123120
149 1 0.5765896875 -4.3810012500 -2.4807613200
150 1 1.6916200000 -3.6961053125 -3.2471959200
151 1 1.6842025000 -4.2488703125 -2.4252231440
152 1 -1.7090618750 -3.0336500000 -3.2261359680
153 1 -1.6389315625 -3.6049990625 -2.4336808000
154 1 -0.5874740625 -2.8322353125 -3.2911420560
155 1 -0.5604915625 -3.3656906250 -2.4407525920
156 1 0.5707712500 -2.6324600000 -3.2517291200
157 1 0.5442053125 -3.1805756250 -2.4397423360
158 1 1.6855193750 -2.5105550000 -3.2083399200
159 1 1.6828990625 -3.1192468750 -2.4828595440
160 1 2.2129681250 -5.8511658750 -4.0917699360
161 1 2.2245512500 -5.2457178125 -4.8092200720
162 1 2.2051475000 -4.0497265625 -4.8484387280
163 1 2.2380156250 -2.4345928125 -4.0327865280
164 1 -1.6806818750 -2.5196521875 -5.6404768416
165 1 -1.1053284375 -2.4159146875 -4.8713896720
166 1 -0.5270859375 -2.2917253125 -5.6198559624
167 1 -1.6579590625 -2.5197865625 -2.3445192320
168 1 2.2322375000 -2.9692978125 -4.9096369280
169 1 0.0600253125 -2.2528371875 -4.8507571360
170 1 -0.5245462500 -2.3033621875 -2.4516970320
171 1 -0.0517881250 -6.6317100719 -4.8607042720
172 1 0.5408325000 -6.6768873500 -5.6169210392
173 1 -0.5376612500 -6.2611950625 -6.4347985223
174 1 0.5842221875 -6.1195409688 -6.4728001436
175 1 -0.5731496875 -5.0729921875 -6.4740109355
176 1 -1.6577171875 -3.0683993750 -6.4732206692
177 1 6.7046943750 -4.4783290625 -4.8987831520
178 1 6.6889725000 -3.9176762500 -4.0754504160
179 1 6.6738687500 -2.8013425000 -4.0321259760
180 1 2.2601471875 -4.6361659375 -4.1118066800
181 1 6.7027862500 -6.1864180625 -4.0561001280
182 1 6.6874271875 -5.5954892188 -4.8093366400
183 1 2.2664225000 -6.4267235625 -4.8627377360
184 1 2.8101306250 -6.2792926875 -5.6725550600
185 1 3.3717240625 -6.2755825938 -4.8352017840
186 1 3.3447550000 -5.7266660938 -4.0206375520
187 1 3.8992534375 -6.3705225625 -5.7092416000
188 1 4.4390512500 -6.3498140313 -4.8561063120
189 1 4.5006218750 -5.8100121875 -4.0234740400
190 1 5.0101181250 -6.4636215938 -5.6713544096
191 1 5.5685403125 -6.0614358750 -4.0821466000
192 1 6.1922687500 -6.6071659406 -5.6302033152
193 1 2.7654912500 -5.1785437500 -5.6341212952
194 1 3.3689559375 -5.1912959375 -4.8751975600
195 1 3.9040371875 -4.6018465625 -6.4394993212
196 1 3.3727453125 -4.6185493750 -4.0604520000
197 1 3.9146528125 -5.1841337500 -5.6861145088
198 1 4.4882996875 -5.2803731250 -4.9076682240
199 1 4.4373581250 -4.7498471875 -4.0332916560
200 1 5.0809740625 -5.3347278125 -5.6633500736
201 1 5.6182321875 -5.4610416563 -4.8192060640
202 1 5.5911690625 -4.8893687500 -4.0489635760
203 1 6.1495509375 -5.5278058750 -5.6956445904
204 1 2.2533075000 -3.4949728125 -4.0271394560
205 1 2.7831481250 -4.0882518750 -5.6470098304
206 1 3.3557871875 -4.0631909375 -4.8796660000
207 1 3.3685662500 -3.5054406250 -4.0699069600
208 1 3.9374965625 -4.0305378125 -5.6502089744
209 1 4.4998559375 -4.1855662500 -4.8424937600
210 1 4.4921831250 -3.6146740625 -4.0710596880
211 1 5.0330425000 -4.2343309375 -5.7023058040
212 1 5.5746409375 -4.3145528125 -4.8217187520
213 1 6.1478846875 -3.8522759375 -6.4501231992
214 1 5.6355531250 -3.7236790625 -4.0661767840
215 1 6.1157825000 -4.4229531250 -5.6498618608
216 1 2.8124821875 -2.9435515625 -5.6904896944
217 1 3.3351606250 -2.9183965625 -4.8289589200
218 1 3.3715493750 -2.3403421875 -4.0495464160
219 1 3.8990787500 -2.9582118750 -5.6664041552
220 1 4.4480275000 -3.0214487500 -4.8239724000
221 1 4.5055400000 -2.4421715625 -4.0692593600
222 1 5.0005371875 -3.1320796875 -5.6276440000
223 1 5.6097800000 -3.1884500000 -4.9177189760
224 1 5.5660140625 -2.6412481250 -4.0710985440
225 1 6.2180418750 -3.2988256250 -5.6256610488
226 1 2.7597131250 -5.6871867188 -3.2589563360
227 1 2.8081956250 -6.2363854063 -2.4382140000
228 1 3.9196650000 -5.7774517813 -3.2442558160
229 1 3.9137256250 -6.3348876563 -2.4391335920
230 1 5.0644459375 -5.8975843750 -3.1926161920
231 1 5.0070409375 -6.4987821563 -2.4646878880
232 1 6.1437056250 -6.0441794375 -3.2627901280
233 1 6.1651384375 -6.5980942844 -2.4308313600
234 1 2.7922318750 -4.6202156250 -3.2571301040
235 1 2.8013290625 -5.1610884375 -2.3830773360
236 1 3.9028681250 -4.5966865625 -3.1876685280
237 1 3.9028009375 -5.2080121875 -2.4792977440
238 1 5.0351656250 -4.7487318750 -3.2605882880
239 1 5.0422875000 -5.3084709375 -2.4548055120
240 1 6.1785893750 -4.9943290625 -3.3002602640
241 1 6.1677587500 -5.5041693125 -2.3940217760
242 1 2.8473525000 -3.5268734375 -3.2432714640
243 1 2.7711350000 -4.0774346875 -2.4145377440
244 1 3.9510953125 -3.4754346875 -3.2555240560
245 1 3.9266659375 -4.0216690625 -2.4388745520
246 1 5.0552412500 -3.6852612500 -3.2673751360
247 1 5.0499737500 -4.2137984375 -2.3971561600
248 1 6.1597500000 -3.8922793750 -3.2004651040
249 1 6.1254171875 -4.4671490625 -2.4129835040
250 1 2.8097678125 -2.3655106250 -3.2423777760
251 1 2.7791840625 -2.9516543750 -2.4713581680
252 1 3.9288428125 -2.4117087500 -3.2600313520
253 1 3.8964987500 -2.9301812500 -2.3858749680
254 1 5.0353403125 -2.5853884375 -3.2018768720
255 1 5.0291321875 -3.1482853125 -2.4035544480
256 1 6.1227296875 -2.7458321875 -3.2179244000
257 1 6.1758212500 -3.3167243750 -2.4289921760
258 1 5.5752321875 -6.6080931281 -4.9132116800
259 1 2.7812803125 -5.7222236563 -6.4759344666
260 1 3.9175150000 -5.7632980625 -6.4283942764
261 1 5.0228031250 -5.8977053125 -6.4610396629
262 1 2.7891009375 -3.5348553125 -6.4613323781
263 1 2.8230709375 -2.3658868750 -6.4597129895
264 1 5.0314300000 -2.5689543750 -6.4483877607
265 1 -6.7135390719 -2.2341725000 -4.8263296640
266 1 -6.0931806250 -1.7124212500 -6.4363609221
267 1 -6.6635323563 -1.6832215625 -4.0044216480
268 1 -5.5775071563 -1.8959775000 -4.0546106480
269 1 -4.4792025000 -2.0276246875 -4.0912389040
270 1 -3.3079496875 -2.0784587500 -3.9950184960
271 1 -6.7059872909 -0.6329465625 -4.0549733040
272 1 -6.1509605313 -1.1705943750 -5.6202769024
273 1 -5.5807724688 -1.3288478125 -4.8557048000
274 1 -5.5950256250 -0.7585334375 -4.0857084000
275 1 -4.9890615625 -1.3766450000 -5.6392192024
276 1 -4.4377746875 -1.4282584375 -4.7999205360
277 1 -4.4353156250 -0.8433375000 -4.0541702800
278 1 -3.9148946875 -1.5403809375 -5.6848193088
279 1 -3.3492028125 -1.5503381250 -4.8622844160
280 1 -3.3186459375 -0.9980971875 -4.0105090880
281 1 -2.7950537500 -1.5103481250 -5.7037991696
282 1 -6.1276290000 -0.0660990625 -5.6565295504
283 1 -5.5896842188 -0.1531740625 -4.7954650480
284 1 -5.5744151875 0.4474553125 -4.0698162960
285 1 -5.0635456250 -0.3018465625 -5.6658239056
286 1 -4.4762731250 -0.3040906250 -4.8866082720
287 1 -3.9433418750 0.1484037500 -6.4436158554
288 1 -4.4731825000 0.2369031250 -4.0351696960
289 1 -3.8947115625 -0.4060946875 -5.6510366072
290 1 -3.3201778125 -0.4675578125 -4.8727366800
291 1 -3.3742771875 0.0795096875 -4.0501422080
292 1 -2.7708528125 -0.3590903125 -5.6931565112
293 1 -6.7055703791 1.7125153125 -4.0840894000
294 1 -6.2055638125 1.0016984375 -5.6521427080
295 1 -5.6103363125 0.9992393750 -4.8845748080
296 1 -5.6213900000 1.5435656250 -4.0390423440
297 1 -5.0534540625 0.8226168750 -5.6604488256
298 1 -4.4584281250 0.7853278125 -4.8983168800
299 1 -4.5124334375 1.3088393750 -4.0367109840
300 1 -3.8861384375 0.7505112500 -5.6722480976
301 1 -3.3385871875 0.6468678125 -4.8393723280
302 1 -2.8070803125 1.3305812500 -6.4592757300
303 1 -3.3525890625 1.2367740625 -4.0849571840
304 1 -2.7784450000 0.7503768750 -5.6606444008
305 1 -6.1100057188 -1.7389737500 -3.1934192160
306 1 -4.9957400000 -1.8774606250 -3.2235714720
307 1 -3.9204846875 -2.0864137500 -3.2710405520
308 1 -2.7452006250 -2.1198328125 -3.2009572800
309 1 -6.1297642188 -0.5985734375 -3.2387771200
310 1 -6.1618005625 -1.1612956250 -2.4387709360
311 1 -5.0299653125 -0.8355437500 -3.2780475840
312 1 -5.0109781250 -1.3545000000 -2.3585203440
313 1 -3.9124893750 -0.9999515625 -3.2097387360
314 1 -3.8556621875 -1.5546381250 -2.3963790400
315 1 -2.7623334375 -0.9155506250 -3.1982244080
316 1 -2.7556818750 -1.5261909375 -2.4879885360
317 1 -6.1618287813 0.4505459375 -3.2922429760
318 1 -6.1545671563 -0.0674025000 -2.3720422320
319 1 -5.0527015625 0.2565218750 -3.2180927760
320 1 -5.0332037500 -0.3064287500 -2.4185010560
321 1 -3.9147603125 0.1832068750 -3.2165514880
322 1 -3.9026396875 -0.4076668750 -2.4735859120
323 1 -2.7998240625 0.2052443750 -3.2442040080
324 1 -2.7685684375 -0.3632290625 -2.4166489200
325 1 -6.1848001875 1.5397359375 -3.2148159200
326 1 -6.1818829063 0.9763553125 -2.4128928400
327 1 -5.0570284375 1.4375034375 -3.2124068480
328 1 -5.0379606250 0.8477450000 -2.4817197680
329 1 -3.9115353125 1.2996346875 -3.2828139200
330 1 -3.9095465625 0.7525940625 -2.4349371440
331 1 -2.8068115625 1.2894221875 -3.2674010400
332 1 -2.8029281250 0.7526343750 -2.4036839680
333 1 -2.2485103125 0.1980687500 -4.0557892800
334 1 -6.1610077500 2.1019743750 -5.6473970952
335 1 -5.5626520000 2.0922053125 -4.8901959760
336 1 -5.0238109375 1.9841140625 -5.7326225504
337 1 -4.5026643750 1.8804303125 -4.8366394560
338 1 -3.9495768750 1.8514321875 -5.6786217768
339 1 -3.3882253125 1.8089428125 -4.8393852800
340 1 -2.8297090625 1.8723678125 -5.6182136488
341 1 -6.1495630313 2.1279356250 -2.4769534320
342 1 -5.0309731250 2.0223571875 -2.4619032080
343 1 -3.9286009375 1.8166828125 -2.4075436640
344 1 -2.7668753125 1.8354281250 -2.4280725840
345 1 -2.2553634375 -1.4448940625 -4.8840437760
346 1 -6.7063124381 -0.0586546875 -4.8561969760
347 1 -2.7682728125 -2.0959275000 -6.4409965724
348 1 -3.9177703125 -0.9611843750 -6.4689162404
349 1 -2.7915331250 -0.9438231250 -6.4718845927
350 1 -5.0090565625 0.2698518750 -6.4709316493
351 1 -5.0736237500 1.3845731250 -6.4507954080
352 1 0.6009921875 -2.1053203125 -5.6808831960
353 1 -2.2201840625 -0.3715200000 -4.8510032240
354 1 -1.6416862500 -1.9620631250 -6.4688820600
355 1 -2.1870068750 -1.9620765625 -4.0154567520
356 1 -1.1100853125 -1.8397281250 -4.1072734800
357 1 -0.0374771875 -1.6995346875 -4.0621875680
358 1 1.1406287500 -2.0615409375 -4.8424678560
359 1 1.1290053125 -1.5168384375 -4.0173606960
360 1 1.6942403125 -1.9085146875 -5.6888681040
361 1 -2.1963728125 -0.8980550000 -3.9914566960
362 1 -1.6568840625 -1.3935090625 -5.6692030824
363 1 -1.1364631250 -1.2286443750 -4.8243480080
364 1 -1.0893378125 -0.6504825000 -4.0492226160
365 1 -0.5540953125 -1.2212940625 -5.6178626496
366 1 0.0169850000 -1.1018615625 -4.8164343360
367 1 0.0468968750 -0.4993778125 -4.0764477200
368 1 0.5623190625 -0.9871859375 -5.6237713520
369 1 1.1603281250 -0.9667071875 -4.8454986240
370 1 1.6813268750 -0.2164512500 -6.4461118353
371 1 1.1209831250 -0.3842050000 -4.0756835520
372 1 1.6986343750 -0.7968303125 -5.6629213624
373 1 -1.6818778125 -0.2480428125 -5.7026697552
374 1 -1.1232406250 -0.1217437500 -4.8715969040
375 1 -1.1435312500 0.4331040625 -3.9941766160
376 1 -0.5713356250 -0.1242028125 -5.7025169216
377 1 -0.0527153125 0.0672412500 -4.8507700880
378 1 0.0113278125 0.6264025000 -4.0162597760
379 1 0.5303781250 0.0869003125 -5.6276983984
380 1 1.1070081250 0.1794443750 -4.8700167600
381 1 1.6937968750 0.3342981250 -5.5998464176
382 1 1.1446062500 0.7484821875 -4.1090479040
383 1 -2.2116512500 0.7531853125 -4.8571424720
384 1 -1.7262215625 1.4412390625 -6.4700427146
385 1 -2.2203318750 1.3238356250 -4.0526678480
386 1 -1.6578246875 0.8790140625 -5.6908976824
387 1 -1.0956668750 0.9408937500 -4.8807798720
388 1 -1.0968628125 1.4973003125 -4.0210779200
389 1 -0.5536384375 1.0743550000 -5.7258279312
390 1 -0.0194843750 1.1526553125 -4.8524149920
391 1 0.0175896875 1.7393634375 -4.0193682560
392 1 0.5395828125 1.2012184375 -5.6959891136
393 1 1.0590093750 1.3447040625 -4.8563524000
394 1 1.6727134375 1.3900959375 -5.6299818360
395 1 -1.6312453125 -1.9605715625 -3.1870079760
396 1 -0.5931984375 -1.7077181250 -3.1979912720
397 1 0.5373521875 -1.5257743750 -3.2840832160
398 1 0.5343690625 -2.0657065625 -2.4348205760
399 1 1.6954228125 -1.3644706250 -3.2250998080
400 1 1.6336775000 -1.9339653125 -2.4540024880
401 1 -1.5985250000 -0.8573393750 -3.2109691760
402 1 -1.6353168750 -1.3855809375 -2.3780260560
403 1 -0.5027909375 -0.7147003125 -3.2581533120
404 1 0.6074018750 -0.4672756250 -3.1951029760
405 1 1.6670562500 -0.2688306250 -3.1926939040
406 1 -1.7010396875 0.3011881250 -3.2125881760
407 1 -1.6221750000 -0.2788953125 -2.4572016320
408 1 -0.5241162500 0.3955328125 -3.2600184000
409 1 -0.5371371875 -0.1544640625 -2.4280596320
410 1 0.5245328125 1.1743031250 -2.4216742960
411 1 0.6484265625 0.6337393750 -3.2909607280
412 1 1.6862046875 0.8236112500 -3.1755325040
413 1 1.7055546875 0.3155662500 -2.3551269200
414 1 -1.6756965625 1.4831909375 -3.2225612160
415 1 -1.6666128125 0.8975175000 -2.4795049760
416 1 -0.5332537500 1.5892800000 -3.1915152720
417 1 -0.5482365625 0.9637643750 -2.4842583600
418 1 0.6157196875 1.7158478125 -3.2583216880
419 1 1.1834003125 1.9217371875 -4.0266084240
420 1 1.6398453125 1.4444775000 -2.4205863280
421 1 2.2020971875 0.9738693750 -4.0714093920
422 1 1.8040650000 1.9320975000 -3.3993042080
423 1 -2.2054028125 1.8592796875 -4.8853648800
424 1 -1.6500443750 2.0207984375 -5.6690606104
425 1 -1.0882359375 2.0348540625 -4.8573108480
426 1 -0.5350946875 2.1853137500 -5.6716769144
427 1 -1.6641537500 2.0488425000 -2.4128280800
428 1 -0.5369221875 2.1932821875 -2.4720446240
429 1 0.4923096875 -1.0215993750 -2.3154031360
430 1 0.5233234375 0.1315128125 -2.4259484560
431 1 1.6240428125 -0.8338371875 -2.3921955440
432 1 2.1982540625 -0.1553643750 -4.0307919200
433 1 2.2252768750 1.5667990625 -4.7330234560
434 1 -0.4187393750 -1.1795706250 -2.2087175120
435 1 0.5360218750 -1.5243500000 -6.4595938311
436 1 -1.6482706250 -0.8342537500 -6.4651639682
437 1 -0.5241028125 0.4748543750 -6.4571036796
438 1 1.6843637500 1.9457096875 -6.4678448250
439 1 6.6742181250 -1.1592396875 -4.9082510640
440 1 6.7000315625 0.5110953125 -4.0756965040
441 1 2.2947890625 0.3854815625 -4.8659498320
442 1 6.6943206250 1.1091850000 -4.7992599840
443 1 2.2450837500 -1.8749478125 -4.8476357040
444 1 2.2570565625 -1.2992046875 -4.0427725200
445 1 2.7759187500 -1.7856287500 -5.6896063680
446 1 3.3390171875 -1.7997918750 -4.8686697520
447 1 3.8908146875 -1.3088393750 -6.4661275711
448 1 3.3655428125 -1.2239681250 -4.0669798080
449 1 3.9090225000 -1.8602740625 -5.6367104000
450 1 4.5100415625 -1.8969181250 -4.8976822320
451 1 4.4369146875 -1.3567843750 -4.0588718560
452 1 5.0946265625 -2.0066084375 -5.6449504624
453 1 5.6608290625 -2.0638521875 -4.8447603600
454 1 5.5862912500 -1.5147959375 -4.0217384720
455 1 6.1890303125 -2.1872353125 -5.7232025608
456 1 2.2642725000 -0.7313225000 -4.8377792320
457 1 2.7504815625 -0.1120956250 -6.4436497896
458 1 2.7712828125 -0.1249284375 -3.2207738400
459 1 2.8109368750 -0.6822756250 -5.6448610936
460 1 3.4016090625 -0.6653712500 -4.8789665920
461 1 3.3111209375 -0.1328700000 -4.0318539840
462 1 3.9689537500 -0.7347356250 -5.6658122488
463 1 4.5294587500 -0.7884721875 -4.8389449120
464 1 4.4889581250 -0.2275909375 -4.0369829760
465 1 5.0514518750 -0.8876812500 -5.7347311360
466 1 5.5870303125 -0.9551106250 -4.8339842960
467 1 5.6514496875 -0.4014050000 -4.0200417600
468 1 6.1121409375 -1.0451821875 -5.7133253656
469 1 2.7792243750 1.0032168750 -6.4714388237
470 1 2.8451890625 0.4655959375 -5.6493463712
471 1 3.4051565625 0.4444587500 -4.8230398560
472 1 3.3270846875 1.0012953125 -4.0224637840
473 1 3.9283053125 0.3654193750 -5.7213750336
474 1 4.4498415625 0.3349968750 -4.8250862720
475 1 5.0763246875 0.8226706250 -6.4552865140
476 1 4.5082812500 0.9213690625 -4.0454794880
477 1 4.9891959375 0.2437025000 -5.6824050560
478 1 5.5688225000 0.1260571875 -4.9163072080
479 1 5.5849878125 0.6485071875 -4.0478626560
480 1 6.1708225000 0.1059950000 -5.6396323712
481 1 2.8506178125 2.1474200000 -6.4611729390
482 1 2.7392612500 1.5608059375 -5.6750768144
483 1 3.3294228125 1.5480268750 -4.8738894080
484 1 3.2554090625 2.1026328125 -4.0483807360
485 1 3.8706718750 1.4937259375 -5.6709373552
486 1 4.4442918750 1.4522175000 -4.8927086640
487 1 5.0170787500 1.9246531250 -6.4670305975
488 1 4.3778971875 2.0020531250 -4.0385631200
489 1 5.0352731250 1.3812540625 -5.6395145080
490 1 5.5965575000 1.2294371875 -4.8486200560
491 1 5.5686209375 1.7976015625 -4.0565145920
492 1 6.1633915625 1.2247878125 -5.6704011424
493 1 2.8076581250 -1.2524153125 -3.2258251200
494 1 2.8129793750 -1.8146000000 -2.4187471440
495 1 3.9026396875 -1.2822465625 -3.1963852240
496 1 3.9475881250 -1.8655415625 -2.4214152560
497 1 5.0073903125 -1.4514784375 -3.2490351040
498 1 5.0649431250 -2.0103709375 -2.4299247200
499 1 6.1579090625 -1.6483109375 -3.2640853280
500 1 6.2053031250 -2.1819409375 -2.4226197920
501 1 2.8427300000 0.4592400000 -2.4461147200
502 1 2.7673187500 -0.6864546875 -2.4298470080
503 1 3.9178778125 -0.1816884375 -3.2630880240
504 1 3.9004896875 -0.7113409375 -2.4071032960
505 1 5.0481193750 -0.3558787500 -3.2487501600
506 1 5.0455528125 -0.9014143750 -2.4252360960
507 1 6.1963940625 -0.4817881250 -3.1921758240
508 1 6.1513784375 -1.0785475000 -2.4751660560
509 1 2.8166612500 1.5902071875 -2.4135792960
510 1 2.7681787500 1.0131337500 -3.2241025040
511 1 3.9254296875 0.9103771875 -3.2826455440
512 1 3.9193962500 0.3762768750 -2.4249122960
513 1 5.0570553125 0.8171881250 -3.2046874560
514 1 5.0214325000 0.2171500000 -2.4780154960
515 1 6.1691562500 0.6757853125 -3.2432326080
516 1 6.1558934375 0.1042212500 -2.4506090640
517 1 2.7139450000 2.1235684375 -3.3296483520
518 1 3.8593171875 2.0952690625 -3.2201132880
519 1 3.8982993750 1.4956071875 -2.5078569040
520 1 5.0163128125 1.9684593750 -3.2789801280
521 1 5.0069200000 1.4101178125 -2.4631595520
522 1 6.1593737500 1.7266918750 -3.2851841360
523 1 6.1234015625 1.2049675000 -2.3775856880
524 1 6.2280796875 -0.4412203125 -6.4431921954
525 1 6.1401984375 0.6577118750 -6.4710895471
526 1 3.9337743750 2.0785931250 -6.4415753973
527 1 -6.6899159469 6.6851562500 -4.8427916560
528 1 -6.1417424063 6.6274153125 -5.6841380336
529 1 -5.5995997500 6.5643934375 -4.8093754960
530 1 -5.0679665625 6.4408893750 -5.6873967568
531 1 -4.5097190625 6.3864809375 -4.8684236640
532 1 -3.9297162500 6.2974171875 -5.6330540504
533 1 -3.3524278125 6.2885887500 -4.8590464160
534 1 -2.7923796875 6.3470150000 -5.6573908584
535 1 -6.1350908438 6.6592487500 -2.3982311760
536 1 -5.0734893750 6.4043259375 -2.4332015760
537 1 -3.9532453125 6.3154100000 -2.4290310320
538 1 -2.8072012500 6.3584637500 -2.4444827680
539 1 -5.6277687813 2.6147359375 -4.0116877200
540 1 -4.4503387500 2.4470090625 -4.0455053920
541 1 -3.3528981250 2.4110100000 -4.1047607920
542 1 -6.6702918219 3.3886150000 -4.8604581840
543 1 -6.1566338438 3.2507462500 -5.7353321088
544 1 -5.6190035000 3.1632143750 -4.8418979680
545 1 -5.5496619688 3.7367403125 -4.0555431920
546 1 -5.0670125000 3.1384087500 -5.6888396096
547 1 -4.5087112500 2.9920475000 -4.8857016320
548 1 -4.4733437500 3.5595265625 -4.0903970240
549 1 -3.9239381250 2.9414821875 -5.6534858304
550 1 -3.3512453125 2.9955950000 -4.8857275360
551 1 -3.3899050000 3.5150618750 -4.0273466880
552 1 -2.7703018750 2.9485771875 -5.6488930512
553 1 -6.1230884688 4.9987634375 -6.4611904242
554 1 -6.2030362188 4.4165165625 -5.6947379504
555 1 -5.6411565625 4.2756915625 -4.9016325920
556 1 -5.6202115313 4.8370431250 -4.1083873520
557 1 -5.0267537500 4.2366018750 -5.6088156776
558 1 -4.4254525000 4.1314265625 -4.8776066320
559 1 -4.5250243750 4.6696656250 -4.0529139360
560 1 -3.8697715625 4.0739275000 -5.6917719424
561 1 -3.3235506250 4.0856853125 -4.8596810640
562 1 -3.3559215625 4.6275659375 -4.0017276320
563 1 -2.7756096875 4.0315725000 -5.7404494440
564 1 -6.1464509063 5.5334818750 -5.6130263728
565 1 -5.5625875000 5.4348237500 -4.8591111760
566 1 -5.6501045938 5.9779943750 -4.0457126240
567 1 -5.0098896875 5.3195837500 -5.6776659192
568 1 -4.4724971875 5.2660084375 -4.7933150160
569 1 -4.4554450000 5.8477043750 -4.0287325520
570 1 -3.9547234375 5.2030134375 -5.6899508912
571 1 -3.3955621875 5.1544637500 -4.8635925680
572 1 -2.8165403125 5.7905950000 -6.4646235849
573 1 -3.3211721875 5.7201690625 -4.0610348400
574 1 -2.8369921875 5.2099068750 -5.6782228552
575 1 -6.1881649375 2.7132865625 -3.2289076960
576 1 -5.0138000000 2.5720718750 -3.2807286480
577 1 -3.8810993750 2.3693806250 -3.2316923760
578 1 -2.8113534375 2.3893621875 -3.2420539760
579 1 -6.1269799688 3.8406390625 -3.2802882800
580 1 -6.1614162500 3.2919187500 -2.4556344400
581 1 -5.0149690625 3.6790800000 -3.2100236800
582 1 -5.0830300000 3.0974109375 -2.4239020400
583 1 -3.9409231250 3.5177225000 -3.2097775920
584 1 -3.9222315625 2.9458090625 -2.4502464080
585 1 -2.7922856250 3.4624540625 -3.2696158320
586 1 -2.7707184375 2.9393321875 -2.4016116480
587 1 -6.1254252500 4.9710553125 -3.1888212560
588 1 -6.2060032188 4.3764862500 -2.4390947360
589 1 -5.0748331250 4.8048603125 -3.2349692320
590 1 -5.0386728125 4.2422053125 -2.4169338640
591 1 -3.9488781250 4.6573971875 -3.2705742800
592 1 -3.8948056250 4.1042021875 -2.4433429920
593 1 -2.7765503125 4.5802390625 -3.2245428720
594 1 -2.8082628125 4.0045362500 -2.4333440480
595 1 -6.1995895000 6.1055834375 -3.2376891520
596 1 -6.1584667188 5.5469865625 -2.4246273520
597 1 -5.0601056250 5.8762187500 -3.3055576320
598 1 -5.0183821875 5.3638200000 -2.4026996160
599 1 -3.8930318750 5.7621612500 -3.2435564080
600 1 -3.9608912500 5.1940909375 -2.4291605520
601 1 -2.8010737500 5.7719034375 -3.1806744480
602 1 -2.8134362500 5.1491021875 -2.4749588240
603 1 -2.2573118750 2.4153368750 -4.0792064960
604 1 -2.2403134375 3.6093393750 -4.0882469920
605 1 -2.2770650000 4.1945021875 -4.8332460320
606 1 -2.2642725000 5.2620981250 -4.9127713120
607 1 -2.2460109375 5.8086146875 -4.0160136880
608 1 -6.6683921625 5.0169578125 -4.0401432640
609 1 -6.2047051563 2.6516487500 -6.4613843156
610 1 -5.0295084375 2.5728781250 -6.4688443956
611 1 -6.1262180625 3.8443881250 -6.4627889600
612 1 -3.9271093750 3.5074696875 -6.4697798927
613 1 -2.7621318750 4.6470503125 -6.4503779650
614 1 -2.2195121875 3.0087100000 -4.8089610320
615 1 -2.2192031250 6.3456578125 -4.8687604160
616 1 -1.6846862500 6.4675225000 -5.7299298296
617 1 -1.1437731250 6.5738668750 -4.8706514080
618 1 -0.5788471875 6.5770784375 -5.7028277696
619 1 -1.6730762500 6.4579818750 -2.4599733600
620 1 -0.5696693750 6.5734906250 -2.4348853360
621 1 1.1203784375 2.4558375000 -4.8825154400
622 1 -1.1081503125 2.5898362500 -4.0369052640
623 1 0.0332309375 2.2561428125 -4.8769590320
624 1 0.0232737500 2.7940862500 -4.0186688480
625 1 0.5857137500 2.3397778125 -5.6975485344
626 1 1.7070462500 2.5174887500 -5.6778550184
627 1 1.1188062500 3.0128487500 -4.0247821920
628 1 -1.6839337500 3.1327650000 -5.6517671000
629 1 -1.0911250000 3.1386371875 -4.8436723920
630 1 -1.1336681250 3.7481353125 -4.1135681520
631 1 -0.5639046875 3.3223815625 -5.6846820176
632 1 0.0059393750 3.3373509375 -4.8863233280
633 1 -0.0193903125 3.8732518750 -4.0412700880
634 1 0.5237131250 3.4955775000 -5.7748370040