ITEM: TIMESTEP
125000
ITEM: NUMBER OF ATOMS
2304
ITEM: BOX BOUNDS pp pp pp
-6.7187500000 6.7187500000
-6.7187500000 6.7187500000
-6.4760000000 6.4760000000
ITEM: ATOMS id type x y z
1 1 -6.1408797188 -5.8634947813 -6.4627731586
2 1 -6.1541868750 -6.4627495000 -5.7259924216
3 1 -5.6318551250 -6.3180827188 -4.8817512720
4 1 -5.5892730313 -5.7895092500 -4.0001086320
5 1 -5.0257190625 -6.3304895625 -5.6670724784
6 1 -4.5065209375 -6.2951825313 -4.8444365600
7 1 -3.9038490625 -5.1923171875 -5.6311954384
8 1 -4.4642331250 -5.7320706563 -4.0416586480
9 1 -3.9070740625 -6.2512996875 -5.6270805880
10 1 -3.3451984375 -6.3995542813 -4.8469881040
11 1 -3.3768168750 -5.8279337813 -4.0772118880
12 1 -2.7853518750 -6.4406004688 -5.6550594984
13 1 -6.1633620000 -5.3084843750 -5.6752918176
14 1 -5.5927036250 -5.2604587500 -4.8683977600
15 1 -5.6312047500 -4.6899562500 -4.0720440400
16 1 -5.0309596875 -5.1356378125 -5.6831264824
17 1 -4.4927071875 -5.1658856250 -4.8534641040
18 1 -4.5056609375 -4.6242334375 -4.0200288080
19 1 -3.3294093750 -4.6459484375 -4.0310250560
20 1 -2.8246834375 -5.3527743750 -5.6669131688
21 1 -2.8013425000 -4.7816000000 -6.4596110573
22 1 -6.1265298125 -4.2344921875 -5.6536425496
23 1 -5.0375440625 -4.0313843750 -5.6772229608
24 1 -5.5971165000 -3.5294937500 -4.0726527840
25 1 -4.4706159375 -4.0600331250 -4.8227808160
26 1 -3.9627993750 -4.0815465625 -5.6902617392
27 1 -3.8959209375 -3.5067171875 -6.4604757328
28 1 -4.4667862500 -3.4721425000 -4.0673554160
29 1 -3.3921087500 -4.0939628125 -4.8668176160
30 1 -3.3569025000 -5.2139246875 -4.7962292160
31 1 -3.9285068750 -3.5098884375 -3.2453826400
32 1 -2.8088943750 -4.2278271875 -5.6402411152
33 1 -6.1710106250 -3.0851290625 -5.6743787016
34 1 -5.6041160938 -2.9611681250 -4.8789277360
35 1 -5.5779008750 -4.0992303125 -4.8387506320
36 1 -5.5664010625 -2.4389734375 -4.0087735200
37 1 -5.0141359375 -2.9762853125 -5.6614526056
38 1 -4.4798340625 -2.9047575000 -4.8475709440
39 1 -4.4603765625 -2.3237334375 -4.0755928880
40 1 -3.9046821875 -2.9506196875 -5.6541554488
41 1 -3.3419331250 -3.0076618750 -4.8772439760
42 1 -3.3863171875 -2.4590759375 -4.0412830400
43 1 -2.7598743750 -3.0810709375 -5.6602895160
44 1 -6.1996634063 -5.8817281250 -3.2692013680
45 1 -6.1561312813 -6.4604463125 -2.4758525120
46 1 -5.0204515625 -5.7564960000 -3.2289206480
47 1 -5.0917912500 -6.3189776563 -2.4169079600
48 1 -3.8995087500 -5.7438083125 -3.2135466240
49 1 -3.9236021875 -6.2916242813 -2.3969100720
50 1 -2.8108159375 -5.8674910938 -3.2574150480
51 1 -2.7783509375 -6.4153702188 -2.4186046720
52 1 -6.1761800313 -4.7838978125 -3.2040657600
53 1 -6.1219153750 -5.3626240625 -2.4039689120
54 1 -5.0922346875 -4.5890540625 -3.2369379360
55 1 -5.0148615625 -5.1769715625 -2.4722518560
56 1 -3.9253759375 -4.6351715625 -3.2771409440
57 1 -3.9263300000 -5.1498278125 -2.4262463520
58 1 -2.8304884375 -4.2544200000 -2.4264406320
59 1 -6.1160364688 -3.6685987500 -3.2065136880
60 1 -6.1972540625 -4.2234868750 -2.3966121760
61 1 -5.0278287500 -3.5045537500 -3.2449293200
62 1 -5.0042459375 -4.0520512500 -2.3944880480
63 1 -3.9122878125 -4.0766284375 -2.4396646240
64 1 -3.3260634375 -3.5493678125 -4.0236942240
65 1 -6.1668423125 -2.4863406250 -3.2510167600
66 1 -6.1762633438 -3.0691384375 -2.4818622400
67 1 -4.9946246875 -2.4118296875 -3.2277420160
68 1 -5.0812428125 -2.9615846875 -2.3926488640
69 1 -3.9247443750 -2.4031490625 -3.1924089600
70 1 -3.9133090625 -2.9752909375 -2.4033213120
71 1 -2.8222243750 -2.4977625000 -3.2186885680
72 1 -2.7940593750 -3.6665159375 -3.1738616960
73 1 -2.2648100000 -5.4021182188 -4.8478429360
74 1 -2.7716456250 -4.8057068750 -3.2517809280
75 1 -2.2560487500 -2.6351475000 -3.9969483440
76 1 -6.7046990781 -6.5459410625 -4.8625175520
77 1 -5.0350312500 -5.7337422813 -6.4163506002
78 1 -2.8288356250 -5.3329406250 -2.3824944960
79 1 -2.7637040625 -3.0750106250 -2.4458297760
80 1 -6.1203673750 -2.5200150000 -6.4566646068
81 1 -2.2555112500 -3.7438487500 -4.0355194000
82 1 -6.7165594591 -4.8301362500 -4.0820429840
83 1 -6.6836642844 -3.7551900000 -3.9915862160
84 1 -6.7126071409 -2.6663628125 -4.0349883680
85 1 -5.0314031250 -2.3862178125 -6.4467335313
86 1 -3.8964584375 -4.6527209375 -6.4703551039
87 1 -6.1383306250 -3.6575128125 -6.4477933934
88 1 -2.8088003125 -3.6586012500 -6.4399960304
89 1 -2.7915196875 -2.5312084375 -6.4734663039
90 1 -2.2246856250 -6.5217481875 -4.8198795680
91 1 -2.2358925000 -4.2897068750 -4.8776454880
92 1 -1.6744200000 -4.9451209375 -3.1682016720
93 1 -1.7157268750 -5.5128391875 -5.6718219768
94 1 -2.1936987500 -4.8357262500 -4.0536392480
95 1 -2.2265937500 -5.9598470313 -4.0284217040
96 1 -1.6911765625 -6.6594919688 -5.6854759752
97 1 -0.5230546875 -6.2198787813 -6.4351208976
98 1 -1.0832506250 -6.1195342500 -4.0358432000
99 1 0.5513137500 -6.4019945313 -6.4495823237
100 1 -0.0094196875 -6.3424852188 -4.0630164960
101 1 1.0801465625 -6.5245982813 -4.0268156560
102 1 -1.1354553125 -5.5860789375 -4.8976563280
103 1 -0.5434393750 -5.6551490313 -5.6422927120
104 1 -0.5142934375 -4.5190312500 -5.6939349264
105 1 -1.1410184375 -5.0449212500 -4.0410628560
106 1 0.0378131250 -5.7848088125 -4.8703017040
107 1 -0.0411187500 -5.2371581250 -4.0352474080
108 1 0.6026584375 -5.8196119375 -5.6753125408
109 1 1.1422412500 -5.9658428438 -4.8417425440
110 1 1.1242618750 -5.4021088125 -4.0429668000
111 1 -1.6963768750 -3.8047609375 -6.4569551202
112 1 -1.6513478125 -4.3653600000 -5.6458998440
113 1 -1.0732800000 -4.4930162500 -4.8706255040
114 1 -1.1265462500 -3.9500203125 -4.0232927120
115 1 0.0065978125 -4.6711034375 -4.8161882480
116 1 1.1490406250 -4.2359568750 -4.0894515280
117 1 0.0354481250 -4.0892059375 -4.0387314960
118 1 0.5632059375 -4.7128940625 -5.6627775952
119 1 1.1243156250 -3.6382703125 -4.8552514800
120 1 1.1063362500 -4.8251240625 -4.8167063280
121 1 -2.2077812500 -3.1825106250 -4.8427528000
122 1 -1.6613050000 -3.2289237500 -5.6901477616
123 1 -1.1362481250 -3.3847315625 -4.8171985040
124 1 -1.0868518750 -2.8004690625 -4.0553230080
125 1 -0.5747890625 -3.4050087500 -5.6494201976
126 1 -0.0220509375 -3.5271018750 -4.8372093440
127 1 0.5489621875 -3.6388212500 -5.6294870696
128 1 1.1140090625 -3.1086043750 -4.0276316320
129 1 1.6798621875 -3.2443096875 -3.2316017120
130 1 1.6639253125 -3.7955562500 -5.6578312264
131 1 -1.6580531250 -6.0856180000 -3.2462115680
132 1 -1.6935550000 -6.6356940219 -2.4111184160
133 1 -0.5493115625 -6.2342300313 -3.1889896320
134 1 0.5358068750 -6.3797581563 -3.2051925840
135 1 1.6755890625 -6.5663781563 -3.2560550880
136 1 -1.7136306250 -5.5379780625 -2.4267514800
137 1 -0.5814943750 -5.0791734375 -3.2038455760
138 1 -0.5479275000 -5.6540820938 -2.4274897440
139 1 0.5468793750 -5.2689915625 -3.2749779600
140 1 0.5820856250 -5.8084816563 -2.4164546400
141 1 1.6901284375 -5.4363798125 -3.2490739600
142 1 1.6482034375 -6.0058785313 -2.4446511440
143 1 -1.6838128125 -3.8020734375 -3.2313556240
144 1 -1.6719743750 -4.3576200000 -2.4252620000
145 1 -0.5393409375 -3.9784675000 -3.2651992000
146 1 -0.5355112500 -4.5112778125 -2.4180088800
147 1 0.5988421875 -4.2015165625 -3.2295293920
148 1 0.5602631250 -4.7506937500 -2.3918587920
149 1 1.6642746875 -4.3357034375 -3.2138186160
150 1 1.6899134375 -4.9066090625 -2.4156386640
151 1 -1.6652153125 -3.2304959375 -2.4276710720
152 1 0.0202503125 -2.9409312500 -4.0853457440
153 1 -0.5973775000 -3.4290350000 -2.4151205840
154 1 0.5449175000 -3.0908400000 -3.2112152640
155 1 0.5334150000 -3.6396812500 -2.4065722640
156 1 1.7040631250 -5.9920674688 -5.6952806392
157 1 2.2277762500 -5.9862544063 -4.8301893600
158 1 -0.5683928125 -2.3373590625 -5.6107040792
159 1 0.0302612500 -2.3626215625 -4.8586449040
160 1 0.5661487500 -2.5366909375 -5.6798470360
161 1 1.1478446875 -2.5419450000 -4.8842898640
162 1 1.7019400000 -2.6702596875 -5.7251324088
163 1 -1.6518450000 -2.6856187500 -3.2723357520
164 1 -0.5290209375 -2.8821018750 -3.2453049280
165 1 0.6011534375 -2.5036750000 -2.4466716560
166 1 1.7184681250 -3.7705356250 -2.3957314400
167 1 2.2128740625 -2.6411675000 -4.8389967200
168 1 -0.5587178125 -2.3413903125 -2.3867168480
169 1 1.6763415625 -2.6374184375 -2.4928455360
170 1 1.6629443750 -4.8802715625 -5.6278628888
171 1 2.2242690625 -6.5797955000 -4.0722642240
172 1 2.2385531250 -4.3376518750 -4.0518907280
173 1 -1.1410050000 -6.6822624844 -4.8352924480
174 1 -1.6602568750 -6.0833040625 -6.4481921855
175 1 -1.6775912500 -4.9296812500 -6.4301523809
176 1 -0.5799893750 -5.0981606250 -6.4558491489
177 1 6.7154040625 -3.2088750000 -4.8638386560
178 1 2.2490343750 -3.7630375000 -4.8486200560
179 1 2.2595021875 -5.4228307813 -4.0335247920
180 1 6.6927215625 -5.9811750313 -4.0804110320
181 1 6.7126225000 -5.4050435625 -4.8490863280
182 1 6.1854425000 -5.5453364375 -5.6688080464
183 1 6.7112518750 -4.2598756250 -4.9000783520
184 1 4.0185112500 -6.4051926563 -6.4513630942
185 1 3.3680825000 -6.5242381563 -4.0531859280
186 1 4.4894015625 -6.3515635938 -4.0047454480
187 1 5.5954153125 -6.6794140031 -4.8531921120
188 1 5.5956975000 -6.1413930313 -4.0683268160
189 1 6.1759018750 -6.6143395500 -5.6664196976
190 1 2.8286340625 -4.8999709375 -5.6842377640
191 1 3.3379421875 -5.9596185938 -4.8250603680
192 1 2.8286743750 -5.4638917500 -3.2316146640
193 1 3.8601906250 -5.8338220938 -5.6810671144
194 1 4.4624459375 -5.8358323438 -4.9191048400
195 1 5.0147809375 -4.5317968750 -5.6808754248
196 1 4.5057818750 -5.2939046875 -4.0645707360
197 1 5.0279631250 -5.7164912188 -5.7052342512
198 1 5.5715100000 -5.5772948438 -4.9100125360
199 1 5.6260125000 -5.0725621875 -4.0066752960
200 1 2.2617596875 -4.8790218750 -4.8888619200
201 1 3.3767900000 -4.7935190625 -4.8692784960
202 1 3.3725168750 -5.3709687500 -4.0837526480
203 1 3.3637959375 -4.2640278125 -4.0170498480
204 1 3.9652315625 -4.7653943750 -5.6755806472
205 1 4.4973700000 -4.7022246875 -4.8126523520
206 1 4.4955962500 -4.0923906250 -4.0939199680
207 1 5.5997556250 -4.5219337500 -4.8742779680
208 1 4.9860918750 -2.8947331250 -6.4455628000
209 1 5.6303796875 -3.9765325000 -4.0539371440
210 1 6.1415690625 -4.4121896875 -5.6843970736
211 1 2.7780418750 -2.6188209375 -5.6725783736
212 1 2.2470321875 -3.2055962500 -4.0410240000
213 1 2.7676950000 -3.7099728125 -5.6759912256
214 1 3.3620759375 -3.7294975000 -4.8988349600
215 1 3.9525062500 -3.0616940625 -6.4392294015
216 1 3.3882387500 -3.1840290625 -4.0770823680
217 1 4.5093562500 -3.5159353125 -4.8671673200
218 1 4.4807075000 -2.4328056250 -4.9185349520
219 1 5.0647012500 -2.3265150000 -5.6481379496
220 1 5.6259453125 -3.3788190625 -4.8045703040
221 1 6.1350921875 -3.2454787500 -5.6927148480
222 1 5.5823406250 -2.7843575000 -4.0787531760
223 1 6.2202187500 -3.8193675000 -6.4548820230
224 1 2.7782300000 -6.5445529688 -3.2522083440
225 1 3.9004225000 -6.3852016875 -3.2320679840
226 1 5.0738521875 -6.2784635938 -3.2190771280
227 1 6.1529371875 -6.0884089688 -3.2178984960
228 1 6.2055853125 -6.6621262563 -2.4169209120
229 1 2.7715650000 -6.0108033750 -2.4021556320
230 1 3.9203771875 -5.2767046875 -3.2557053840
231 1 3.9444840625 -5.8459763125 -2.4234357680
232 1 5.0297503125 -5.0833256250 -3.2401888880
233 1 5.0193362500 -5.6872713750 -2.4874834080
234 1 6.1948756250 -4.9713509375 -3.2140128960
235 1 6.1227700000 -5.5332346250 -2.3993580000
236 1 2.7795871875 -4.2963987500 -3.2361737680
237 1 2.8015037500 -4.8787262500 -2.4743630320
238 1 3.9545756250 -4.2024571875 -3.2618057760
239 1 3.9086865625 -4.7430075000 -2.4098620720
240 1 5.0349103125 -3.9836409375 -3.2708980800
241 1 5.0615031250 -4.5457718750 -2.4172965200
242 1 6.1469306250 -3.7887165625 -3.2403054560
243 1 6.1249334375 -4.3791871875 -2.4768627680
244 1 2.8102784375 -3.1724325000 -3.2498122240
245 1 2.8563825000 -3.7408790625 -2.4366209040
246 1 6.1351728125 -2.6855515625 -3.2589433840
247 1 3.9354943750 -3.6378537500 -2.4761374560
248 1 4.4692990625 -2.9627403125 -4.0448189360
249 1 5.0479043750 -3.4541228125 -2.3975835760
250 1 5.0457275000 -2.9138681250 -3.2439320160
251 1 6.1878881250 -3.2445381250 -2.4195631200
252 1 3.3201778125 -2.5932896875 -4.8156572160
253 1 3.9462712500 -3.6359590625 -5.6576745072
254 1 3.8584840625 -2.4903718750 -5.6401051192
255 1 2.7657600000 -2.6413287500 -2.3930115200
256 1 3.9150828125 -3.0409734375 -3.2297884320
257 1 5.0627662500 -2.3360556250 -2.4639884800
258 1 3.9418771875 -2.5021834375 -2.4033472160
259 1 2.7859028125 -6.0054727188 -5.6676876984
260 1 5.0974081250 -3.4747225000 -5.6711381112
261 1 5.0699956250 -6.3365955625 -6.4471679414
262 1 5.0826537500 -5.1422625000 -6.4330536289
263 1 2.7823956250 -4.3231125000 -6.4197287408
264 1 3.8696103125 -4.2008984375 -6.4704949596
265 1 -6.6879773188 -2.0759459375 -4.7937553840
266 1 -6.1665896875 -1.9330381250 -5.6832702496
267 1 -5.6031580000 -1.8926450000 -4.8585153840
268 1 -5.6183437188 -1.3396784375 -4.0384206480
269 1 -5.0445718750 -1.8188328125 -5.6684725896
270 1 -4.4784903125 -1.7657009375 -4.8859088640
271 1 -4.4919815625 -1.2520390625 -4.0094858800
272 1 -3.8933006250 -1.8405075000 -5.6589943160
273 1 -3.3379421875 -1.8831312500 -4.8357716720
274 1 -3.3469587500 -1.3297481250 -4.0140708880
275 1 -2.7964781250 -1.9537453125 -5.6950513888
276 1 -6.6882721375 -0.9240565625 -4.8961279920
277 1 -6.2021117188 -0.2769334375 -6.4471228684
278 1 -6.0935192500 -0.8428403125 -5.6548729896
279 1 -5.5582767500 -0.7633171875 -4.8100878560
280 1 -5.6452133438 -0.1762462500 -4.0628351680
281 1 -5.0336471875 -0.6788759375 -5.6782863200
282 1 -4.4665309375 -0.6820875000 -4.8388412960
283 1 -4.4895896875 -0.1345093750 -4.0127238800
284 1 -3.9458412500 -0.6889540625 -5.7047964736
285 1 -3.4020659375 -0.7870746875 -4.8398256480
286 1 -2.7789018750 -0.2711821875 -6.4727951830
287 1 -3.3352143750 -0.2083618750 -4.0380579920
288 1 -2.8362934375 -0.8242696875 -5.6546061784
289 1 -6.6927798813 0.7331096875 -4.0912389040
290 1 -6.1562938750 0.2866353125 -5.6514484808
291 1 -5.5855387500 0.3827940625 -4.8692914480
292 1 -5.0395193750 0.9922250000 -6.4367654130
293 1 -5.6089643438 0.9398321875 -4.0422803440
294 1 -5.0278287500 0.3959628125 -5.6875741992
295 1 -4.4960396875 0.4227168750 -4.8377792320
296 1 -4.4787321875 0.9951006250 -4.0478756080
297 1 -3.9329681250 0.4348375000 -5.6664002696
298 1 -3.3799478125 0.3304684375 -4.8623750800
299 1 -3.3838715625 0.9229815625 -4.1005772960
300 1 -2.7935756250 0.2692740625 -5.6181657264
301 1 -6.7016010625 1.8921746875 -4.0252743680
302 1 -6.2231360313 1.4076587500 -5.6520183688
303 1 -5.6318121250 1.4797106250 -4.8775936800
304 1 -5.5740819375 2.0525378125 -4.0783905200
305 1 -5.0634918750 1.5591128125 -5.6526271128
306 1 -4.4825081250 1.5389700000 -4.8894447600
307 1 -4.4884206250 2.0965725000 -4.0791546880
308 1 -3.8921853125 1.5277093750 -5.6325476272
309 1 -3.3151925000 1.5055240625 -4.8436982960
310 1 -2.7804875000 1.3514093750 -5.6804557800
311 1 -6.1979649063 -1.3894778125 -3.2521824400
312 1 -6.1253043125 -1.9465025000 -2.4207547040
313 1 -5.0682756250 -1.2445678125 -3.2273923120
314 1 -5.0468831250 -1.8318940625 -2.4624990000
315 1 -3.9125565625 -1.2709859375 -3.2342309680
316 1 -3.9191812500 -1.8059462500 -2.4177757440
317 1 -2.7625081250 -1.3855943750 -3.2575704720
318 1 -2.7971096875 -1.9311434375 -2.4285647600
319 1 -6.1851025313 -0.3057165625 -3.2329098640
320 1 -6.1573191563 -0.8549609375 -2.3957832480
321 1 -5.0789853125 -0.1255868750 -3.2571689600
322 1 -5.0290112500 -0.6855543750 -2.4332663360
323 1 -3.9020215625 -0.1215556250 -3.2572596240
324 1 -3.9437853125 -0.6726678125 -2.4646878880
325 1 -2.7716590625 -0.2780756250 -3.2228461600
326 1 -2.8613006250 -0.8350196875 -2.4112997440
327 1 -6.1739601563 0.8281396875 -3.2160075040
328 1 -6.1305839063 0.2553393750 -2.4304168960
329 1 -5.0415215625 0.9911903125 -3.2375337280
330 1 -5.0310134375 0.4255925000 -2.4311033520
331 1 -3.9161578125 1.0057565625 -3.2275865920
332 1 -3.9444706250 0.4379818750 -2.4406230720
333 1 -6.1171504375 1.9294234375 -3.2372617360
334 1 -6.1951631875 1.3700875000 -2.4066240720
335 1 -5.0303550000 2.1118912500 -3.2169011920
336 1 -5.0632768750 1.5369140625 -2.4203920480
337 1 -2.8315096875 1.9157306250 -3.2429606160
338 1 -3.9233737500 1.5597846875 -2.3872867360
339 1 -2.8514643750 0.8180615625 -3.2235973760
340 1 -2.7685146875 1.3789428125 -2.4115587840
341 1 -2.2681021875 -2.0886443750 -4.8268347920
342 1 -2.2766618750 -0.9443740625 -4.8619606160
343 1 -2.2447343750 -0.3652178125 -4.1075972800
344 1 -3.3896631250 2.0651153125 -4.0454017760
345 1 -3.9495768750 2.0973384375 -3.2307857360
346 1 -2.7947715625 0.2684812500 -2.3844891040
347 1 -2.2854231250 0.7756259375 -4.0378766640
348 1 -3.9238978125 -1.2750306250 -6.4630448915
349 1 -2.7673321875 -1.3798968750 -6.4705643176
350 1 -3.8862459375 -0.1163284375 -6.4725535376
351 1 -6.1179110000 0.8589921875 -6.4633367519
352 1 -5.0133296875 2.1172931250 -6.4595759574
353 1 -3.9443765625 2.1026462500 -6.4436499191
354 1 -2.8346137500 1.9491496875 -6.4506065678
355 1 -2.2031587500 0.2207378125 -4.8518321520
356 1 -2.2076334375 1.3261065625 -4.8560156480
357 1 -2.2375856250 1.8680678125 -3.9897599840
358 1 1.6949525000 -2.0583428125 -3.2487631120
359 1 -1.7318250000 0.6344784375 -3.2395671920
360 1 -2.1924356250 -1.5062900000 -4.0559447040
361 1 -1.6992256250 -2.1104400000 -5.6542564744
362 1 -1.1186853125 -1.6471284375 -4.0976371920
363 1 -0.6009115625 -1.7884237500 -3.2097905440
364 1 -1.1497662500 -2.2360403125 -4.8445790320
365 1 -0.0432015625 -1.8070481250 -4.0480957920
366 1 1.6664112500 -2.0560718750 -6.4333563171
367 1 1.1003700000 -2.0356200000 -3.9895009440
368 1 -1.7069790625 -0.5096978125 -6.4733416797
369 1 -1.6824018750 -1.0439996875 -5.6077769272
370 1 -1.0863278125 -1.0580015625 -4.8603934240
371 1 -0.5877428125 -0.6662581250 -6.4362009649
372 1 -0.6103312500 -0.6618506250 -3.2347490480
373 1 -0.5514346875 -1.2477928125 -5.6762399040
374 1 0.0287831250 -1.2574543750 -4.8744592960
375 1 0.5756221875 -1.3580340625 -5.6964476144
376 1 -0.0161250000 -0.7271031250 -3.9938916720
377 1 0.5411684375 -1.9513937500 -6.4380436459
378 1 1.1292740625 -1.4998131250 -4.8573108480
379 1 1.1199887500 -0.9335434375 -4.0759555440
380 1 1.6903971875 -1.4733143750 -5.6769975960
381 1 -1.6612781250 0.0570421875 -5.6747258152
382 1 -1.1597771875 -0.5150056250 -4.0352344560
383 1 -1.0811543750 0.0353540625 -4.8746924320
384 1 -0.5359412500 -0.0652793750 -5.7178702224
385 1 -0.0099975000 -0.1919546875 -4.8554198560
386 1 0.0110725000 0.3589693750 -4.0304551680
387 1 0.5650737500 -0.2297543750 -5.6715603464
388 1 1.0976421875 -0.3472518750 -4.8261612880
389 1 1.6643418750 -0.3789778125 -5.6324258784
390 1 1.1507203125 0.2396712500 -4.0788826960
391 1 -1.6712621875 1.2374190625 -5.7051345208
392 1 -1.1398090625 0.5614456250 -3.9881539360
393 1 -1.1294756250 1.0925628125 -4.8631262960
394 1 -0.5561512500 1.0956534375 -5.6667758776
395 1 -0.0221046875 0.9307484375 -4.8214597120
396 1 0.6083693750 1.4153450000 -6.4605903580
397 1 0.0090971875 1.5158843750 -4.0802556080
398 1 0.5282818750 0.8497740625 -5.6571059144
399 1 1.0924418750 0.8156159375 -4.8588650880
400 1 1.6682925000 0.7104540625 -5.6540440616
401 1 1.1287365625 1.9033546875 -4.8869709280
402 1 -1.6533903125 -1.5864850000 -3.2130155920
403 1 -0.5149384375 -1.2105709375 -2.4257412240
404 1 0.5088781250 -1.9399450000 -3.2439579200
405 1 1.6670965625 -1.4950965625 -2.4526295760
406 1 -1.6847131250 -1.0362328125 -2.3753579440
407 1 -0.5485187500 -0.0659781250 -2.4958504000
408 1 -0.5427003125 0.5246940625 -3.2428440480
409 1 0.5821662500 -0.7872628125 -3.2417301760
410 1 1.6775509375 -0.9108609375 -3.2411991440
411 1 -1.6853581250 1.2066740625 -2.4745573120
412 1 -1.7286671875 -0.4923231250 -3.2163183520
413 1 -0.5239281250 1.6515628125 -3.2306044080
414 1 -1.6267706250 0.0767818750 -2.4257800800
415 1 -0.5955365625 1.0799987500 -2.4350407600
416 1 0.6039484375 0.3191406250 -3.2557701440
417 1 1.6964709375 0.1414834375 -3.2435175520
418 1 1.6719340625 -0.3834659375 -2.3623023280
419 1 -1.6423581250 1.7997784375 -3.2221597040
420 1 0.5472959375 1.4142431250 -3.2286745600
421 1 1.1202171875 1.3653709375 -4.0300018480
422 1 1.6424656250 0.7090968750 -2.4226197920
423 1 2.2339440625 -0.9933940625 -4.0578356960
424 1 1.6848609375 1.2622650000 -3.2270555600
425 1 -1.1448212500 2.2262981250 -4.8089610320
426 1 -0.6017446875 2.1669446875 -5.6486106976
427 1 -0.0191887500 2.0974190625 -4.8438925760
428 1 0.5282146875 1.9687415625 -5.6472028152
429 1 1.6977206250 1.8600187500 -5.6605861168
430 1 -0.5648184375 2.1796431250 -2.3571862880
431 1 0.6022687500 1.9558415625 -2.4021297280
432 1 -1.7080003125 -2.1555631250 -2.4111054640
433 1 0.5778662500 -1.3706787500 -2.4656722400
434 1 0.5227187500 -0.2288540625 -2.4338103200
435 1 0.5290343750 0.8662618750 -2.3987104000
436 1 -1.1092387500 1.6408800000 -4.0392366240
437 1 1.7369581250 1.8223534375 -2.4518783600
438 1 2.2273596875 0.7175356250 -4.8629190640
439 1 -1.6970487500 0.6445834375 -6.4331331542
440 1 -0.5634612500 0.5233100000 -6.4615069710
441 1 1.6807087500 1.2829587500 -6.4469059224
442 1 6.2289934375 -2.1706668750 -5.6613256760
443 1 6.6938771875 0.1824409375 -4.9034070160
444 1 6.6703615625 1.3375015625 -4.8222886400
445 1 2.2615043750 -0.4431418750 -4.8781247120
446 1 2.2501900000 0.1207359375 -4.0955907760
447 1 2.2400043750 1.2539203125 -4.0416586480
448 1 6.6776984375 -1.4811081250 -4.0734040000
449 1 6.6955031250 -0.3797437500 -4.0647779680
450 1 2.2596634375 -2.0797890625 -4.0144464960
451 1 3.3971612500 -1.9991103125 -4.0884801280
452 1 4.5136696875 -1.8861143750 -4.0825740160
453 1 5.0766203125 -1.7577593750 -6.4331003856
454 1 5.6414387500 -2.2211246875 -4.8841862480
455 1 6.1106628125 -1.5884200000 -6.4429773218
456 1 5.5748156250 -1.6735331250 -4.0480180800
457 1 2.2555650000 -1.5576078125 -4.8762078160
458 1 2.7870315625 -0.9409475000 -6.4392738269
459 1 2.7852040625 -0.9582146875 -3.2283766640
460 1 2.8228425000 -1.5314046875 -5.6955837160
461 1 3.3460584375 -1.4018268750 -4.8413151280
462 1 3.3516484375 -0.8717443750 -3.9909127120
463 1 3.9059990625 -1.4275596875 -5.6867323192
464 1 4.4302631250 -1.2895296875 -4.8156572160
465 1 4.5176875000 -0.7064900000 -4.0494298480
466 1 4.9710015625 -1.1799737500 -5.6410480248
467 1 5.5716712500 -1.1309806250 -4.9147011600
468 1 6.1978856250 -0.4503040625 -6.4415834275
469 1 5.6501193750 -0.5847462500 -4.0869388400
470 1 6.1690353125 -1.0280762500 -5.6401750600
471 1 2.8180721875 -0.3503425000 -5.6745302400
472 1 3.4023346875 -0.3453437500 -4.9035883440
473 1 3.8803334375 0.3077993750 -6.4449408450
474 1 3.3205540625 0.1806940625 -4.0436532560
475 1 3.9668978125 -0.2797284375 -5.7109201792
476 1 4.4633193750 -0.1310693750 -4.8188563600
477 1 4.4399918750 0.4184437500 -3.9852138320
478 1 6.0906946875 0.1083734375 -5.6429584448
479 1 5.5413428125 0.0169715625 -4.8188693120
480 1 5.6226396875 0.5824887500 -4.0423580560
481 1 2.8076312500 0.7676978125 -5.6332237216
482 1 3.3827428125 0.7541259375 -4.8590723200
483 1 3.3750565625 1.3242521875 -4.0905135920
484 1 3.9460159375 0.8803443750 -5.6599449928
485 1 4.5323478125 0.9353575000 -4.8831630400
486 1 5.0803962500 1.0249050000 -5.7144159240
487 1 4.4509703125 1.4936856250 -4.0618767200
488 1 5.0260281250 -0.1045706250 -5.6946459912
489 1 5.5978609375 1.1647625000 -4.8374165760
490 1 6.1780787500 1.7568859375 -3.2533999280
491 1 6.1523190625 1.1828896875 -5.7073169328
492 1 2.8651168750 -2.1076181250 -3.2543583760
493 1 3.9433284375 -1.9415575000 -3.2418078880
494 1 5.0243484375 -1.7455850000 -3.2057106640
495 1 6.1468768750 -1.6085359375 -3.2369508880
496 1 6.1789925000 -2.1500537500 -2.3958998160
497 1 2.8295343750 -0.3885184375 -2.4480186640
498 1 2.7641206250 -1.5401525000 -2.4674078080
499 1 3.9677981250 -0.8684118750 -3.2586713920
500 1 3.8722978125 -1.4104671875 -2.3969230240
501 1 5.0958090625 -0.6395846875 -3.2477917120
502 1 5.0456468750 -1.1930887500 -2.3931539920
503 1 6.1609190625 -0.4369606250 -3.1913857520
504 1 6.1649771875 -1.0378050000 -2.4402345120
505 1 2.8241593750 1.2710934375 -3.2569228720
506 1 2.7553996875 0.2034975000 -3.2014883120
507 1 3.8742596875 0.3104600000 -3.2194009280
508 1 3.9313825000 -0.2931525000 -2.4876129280
509 1 5.0643518750 0.4387075000 -3.2736827600
510 1 4.9915071875 -0.1005931250 -2.4103024400
511 1 6.2035965625 0.6433740625 -3.2548635040
512 1 6.1290721875 0.1141246875 -2.3724437440
513 1 3.8938650000 1.4564771875 -3.2019286800
514 1 3.9731731250 0.8815134375 -2.4490159680
515 1 5.5569303125 1.6856268750 -3.9709925360
516 1 5.1071771875 2.1613681250 -2.4238631840
517 1 6.0921728125 1.1922018750 -2.4338621280
518 1 2.2452853125 1.8354146875 -4.8285056000
519 1 2.7839812500 1.8490268750 -5.6908264464
520 1 3.3318012500 1.9154350000 -4.8477522720
521 1 3.9060528125 1.9802306250 -5.6337586392
522 1 4.4979612500 2.0459937500 -4.8738635040
523 1 5.0712990625 2.2105628125 -5.6456200808
524 1 5.6704637500 2.2129009375 -4.8908176720
525 1 3.9124087500 2.0233918750 -2.3830255280
526 1 4.9808781250 1.5928543750 -3.2120700960
527 1 2.7983728125 0.7466412500 -2.3705527520
528 1 5.0820221875 1.0070062500 -2.4585874960
529 1 2.8206925000 1.8337350000 -2.4326834960
530 1 2.7806621875 0.2007831250 -6.4661076121
531 1 5.0020690625 1.6192053125 -6.4277690834
532 1 -3.9409500000 3.2039031250 -3.2528041360
533 1 -6.7149437341 2.4562137500 -4.8527906000
534 1 -6.1757876563 3.0744731250 -6.4576593204
535 1 -6.1597862813 2.4832634375 -5.7048936136
536 1 -5.6248394063 2.6293693750 -4.8493583200
537 1 -5.6016745000 3.1801725000 -4.0278906720
538 1 -5.0516534375 2.6786043750 -5.6375173096
539 1 -4.4762328125 2.6818428125 -4.8382843600
540 1 -3.9017931250 3.2177840625 -6.4599197034
541 1 -4.4827903125 3.2659037500 -4.0857602080
542 1 -3.9213581250 2.6601815625 -5.6422940072
543 1 -3.3365984375 2.6231478125 -4.8601473360
544 1 -2.7950537500 3.0981231250 -6.4413550838
545 1 -2.7801246875 2.5102190625 -5.6839735432
546 1 -6.6729727375 3.4994475000 -4.8878646160
547 1 -6.1891122813 4.2623884375 -6.4481730166
548 1 -6.1498774688 3.6699693750 -5.7148031888
549 1 -5.5959286250 3.7341200000 -4.8684625200
550 1 -5.6305127188 4.2655731250 -3.9952775360
551 1 -5.0225746875 3.7473559375 -5.6742634288
552 1 -4.4840534375 3.8550171875 -4.8247365680
553 1 -4.4736259375 4.4093678125 -4.0226710160
554 1 -3.9317050000 3.7793237500 -5.6552654352
555 1 -3.3634062500 3.7183981250 -4.8546815920
556 1 -3.3471468750 4.2666212500 -4.0374492480
557 1 -2.7994209375 3.6673356250 -5.6594748352
558 1 -6.1290977188 4.8229337500 -5.6416619496
559 1 -5.5500758438 4.7971875000 -4.8464441200
560 1 -5.6070656250 5.3883837500 -4.0973522480
561 1 -5.0177909375 4.9015162500 -5.6813170880
562 1 -4.4548000000 4.9603456250 -4.8743686320
563 1 -3.9445781250 6.0605812500 -5.7069607528
564 1 -4.5059565625 5.4804575000 -3.9933735920
565 1 -3.8880062500 4.8678956250 -5.6858982104
566 1 -3.3642662500 4.8507493750 -4.8206048800
567 1 -2.7765100000 5.3451284375 -6.4583698671
568 1 -3.3503315625 5.4037159375 -4.0141615520
569 1 -2.8111518750 4.7689284375 -5.6671877512
570 1 -6.1699087500 5.8589918750 -5.6290402256
571 1 -5.6216412813 5.9817837500 -4.8302023120
572 1 -5.5840028438 6.5535762500 -4.0642339840
573 1 -5.0764590625 6.0152968750 -5.6683689736
574 1 -4.4871440625 6.0142353125 -4.8733842800
575 1 -4.4753325000 6.5688143750 -4.0574212320
576 1 -3.9226346875 6.6332068750 -6.4617096698
577 1 -3.4037859375 5.9398453125 -4.8616627200
578 1 -3.3642125000 6.4864290625 -4.0285123680
579 1 -2.8120925000 5.8878287500 -5.6278240328
580 1 -6.1537259688 3.0611968750 -3.2232088160
581 1 -6.1930494688 2.4876037500 -2.4543262880
582 1 -5.0128728125 3.1791781250 -3.2402277440
583 1 -5.0387803125 2.6642262500 -2.3694388800
584 1 -3.8892425000 2.6590393750 -2.4128928400
585 1 -3.3479665625 3.1591965625 -4.0141615520
586 1 -2.7823418750 3.0860159375 -3.2093501760
587 1 -6.2087149063 4.2264700000 -3.2199967200
588 1 -6.1314936250 3.6398828125 -2.4576549520
589 1 -5.0402450000 4.3082775000 -3.2499158400
590 1 -5.0509950000 3.7664640625 -2.4309997360
591 1 -3.8914462500 4.3062484375 -3.2256696960
592 1 -3.9313153125 3.7528653125 -2.4120509600
593 1 -2.7746690625 4.2231778125 -3.2207479360
594 1 -2.8124284375 3.6452040625 -2.4326446400
595 1 -6.1457158750 5.3137921875 -3.2239211760
596 1 -6.1471765313 4.7625590625 -2.3723789840
597 1 -5.0898562500 5.4766950000 -3.2166939600
598 1 -5.0207471875 4.8795190625 -2.4619420640
599 1 -3.9145856250 5.4513787500 -3.2273664080
600 1 -3.9468625000 4.8861975000 -2.4424363520
601 1 -2.7772356250 5.3076378125 -3.2233253840
602 1 -2.8142962500 4.7625859375 -2.3840616880
603 1 -6.1395386563 6.4020146875 -3.2593967040
604 1 -6.1940210000 5.8696209375 -2.3965992240
605 1 -5.0332978125 6.5670406250 -3.2249961920
606 1 -5.0174281250 6.0075568750 -2.3849035680
607 1 -3.9423609375 6.6028112500 -3.2125881760
608 1 -3.9005837500 6.0124884375 -2.4406230720
609 1 -2.8105471875 6.4678315625 -3.2170177600
610 1 -2.7937503125 5.8855040625 -2.4435372720
611 1 -2.2464140625 2.4015500000 -4.8539692320
612 1 -2.2487656250 3.5142018750 -4.8274953440
613 1 -2.2405418750 5.7909846875 -4.8554587120
614 1 -2.2537643750 6.3336715625 -4.0390812000
615 1 -2.8043928125 2.4929250000 -2.4683274000
616 1 -3.9182540625 5.4585140625 -6.4390811011
617 1 -2.2607787500 4.6544275000 -4.8319119760
618 1 -6.6937718375 4.6374021875 -4.8314975120
619 1 -6.6955562031 5.2456640625 -4.0963808480
620 1 -5.0596218750 4.3263106250 -6.4595841171
621 1 -2.7650746875 4.2086384375 -6.4753509325
622 1 -2.8106278125 6.4397740625 -6.4696039656
623 1 -5.0380681250 5.4592262500 -6.4740688438
624 1 -0.5929028125 6.6384743750 -5.6653654048
625 1 -2.2280584375 2.9501493750 -4.0160525440
626 1 -2.2252231250 4.0875396875 -4.0466322160
627 1 -2.2260562500 5.2316621875 -4.0551546320
628 1 -0.0078071875 6.5467231250 -4.8956487680
629 1 1.1628006250 6.3748440625 -4.8878257600
630 1 0.5869500000 6.4737037500 -5.6471756160
631 1 1.7578937500 6.3552790625 -5.6723245144
632 1 -0.5878503125 6.6240156250 -2.4186953360
633 1 0.5609618750 6.4809734375 -2.4285388560