ITEM: TIMESTEP
80000
ITEM: NUMBER OF ATOMS
2304
ITEM: BOX BOUNDS pp pp pp
-6.7187500000 6.7187500000
-6.7187500000 6.7187500000
-6.4760000000 6.4760000000
ITEM: ATOMS id type x y z
1 1 -5.5869644688 -6.2497207813 -4.0743754000
2 1 -3.9707140625 -5.4807074375 -5.6425323240
3 1 -4.4512928125 -6.1503007500 -4.1096696000
4 1 -3.9346612500 -6.5821080938 -5.6651180216
5 1 -3.3307262500 -6.5456091563 -4.9200373840
6 1 -2.8125090625 -5.8832895625 -6.4120419878
7 1 -3.3578968750 -6.0125032188 -4.0450650240
8 1 -2.7420696875 -6.4757220625 -5.6774159456
9 1 -6.1363123125 -5.2884759375 -6.4708586129
10 1 -6.1669780313 -5.8676362188 -5.7088504496
11 1 -5.6339675000 -5.6807111875 -4.8762984800
12 1 -5.6042491250 -5.1637490625 -3.9756941120
13 1 -5.0446659375 -5.7371648125 -5.6720849024
14 1 -4.5288675000 -5.5425898125 -4.8155147440
15 1 -4.4649856250 -4.9589884375 -4.0566700160
16 1 -3.3763600000 -5.4675763125 -4.8543189360
17 1 -2.8429584375 -5.2845118750 -5.6739992080
18 1 -2.7533840625 -4.7330906250 -6.4746308311
19 1 -6.6811475750 -4.7995928125 -4.8398515520
20 1 -6.1592393750 -4.6899696875 -5.7218736856
21 1 -5.6011141563 -4.6371737500 -4.8703405600
22 1 -5.6279394375 -4.0903212500 -4.0405188720
23 1 -5.0559668750 -4.5684409375 -5.7078544408
24 1 -4.5206034375 -4.4057128125 -4.8771921680
25 1 -3.9136315625 -3.8677828125 -6.4508143179
26 1 -4.4887162500 -3.8846603125 -3.9819240240
27 1 -3.9197456250 -4.4378418750 -5.6552097416
28 1 -3.3993381250 -4.2634500000 -4.8101267120
29 1 -3.8887721875 -3.8573553125 -3.2329487200
30 1 -2.8347346875 -4.1913040625 -5.6402424104
31 1 -6.6910671375 -3.1293653125 -4.0733262880
32 1 -6.1038835938 -3.5891428125 -5.6615393840
33 1 -5.5574046563 -3.5220896875 -4.8425714720
34 1 -5.6381331250 -2.9424228125 -4.0874180640
35 1 -5.0272240625 -3.4015015625 -5.7123164048
36 1 -4.4721209375 -3.3485443750 -4.8618958560
37 1 -4.5309368750 -2.7997971875 -4.0484195920
38 1 -3.9268809375 -3.2824453125 -5.6925581288
39 1 -3.3801628125 -3.1208325000 -4.8731900000
40 1 -2.8009931250 -2.5700159375 -6.4490996026
41 1 -3.3750968750 -2.6075603125 -3.9747874720
42 1 -2.7827718750 -3.1440256250 -5.6463143080
43 1 -6.1141605938 -6.4240333750 -3.2432844160
44 1 -4.9995696875 -6.2517149063 -3.2739029440
45 1 -3.9388134375 -5.9998303125 -3.2255531280
46 1 -3.8945100000 -6.5883140688 -2.4772772320
47 1 -2.8287146875 -5.8878139688 -3.1896890400
48 1 -2.7712559375 -6.4721396250 -2.4390688320
49 1 -6.2085939688 -5.2518856250 -3.2517809280
50 1 -6.1460343438 -5.8362180000 -2.4997878080
51 1 -4.9915743750 -5.1527975000 -3.2488149200
52 1 -5.0766203125 -5.7049134688 -2.4277487840
53 1 -3.8557428125 -4.9561531250 -3.2635542960
54 1 -3.9439331250 -5.4779487188 -2.3566552560
55 1 -2.8262153125 -4.2471100000 -2.3334970800
56 1 -6.2051055938 -4.1145087500 -3.2356038800
57 1 -6.1080545938 -4.6922943750 -2.4460888160
58 1 -5.0871015625 -3.9465265625 -3.2358499680
59 1 -5.0460096875 -4.5609831250 -2.5121310640
60 1 -3.9892175000 -4.4183843750 -2.4386155120
61 1 -3.3656637500 -3.6725359375 -4.0563980240
62 1 -6.1385227813 -3.0147434375 -3.1931472240
63 1 -6.1705188125 -3.5819134375 -2.3817950880
64 1 -5.0837959375 -2.8443021875 -3.2126140800
65 1 -4.9696309375 -3.4080993750 -2.4074270960
66 1 -3.9899431250 -2.6712809375 -3.2391397760
67 1 -3.8716528125 -3.2624637500 -2.4978579600
68 1 -2.7767518750 -2.5879818750 -3.2411473360
69 1 -2.7614331250 -3.7261246875 -3.2599406880
70 1 -2.2678065625 -5.7901072188 -3.9870141600
71 1 -3.3394337500 -4.8693065625 -4.1175962240
72 1 -2.2537240625 -4.1717793750 -4.8296065200
73 1 -2.2397893750 -3.5705318750 -4.1047607920
74 1 -2.2595290625 -2.9656696875 -4.8080025840
75 1 -2.7682190625 -5.3019403125 -2.4340175520
76 1 -6.1897089063 -2.4530693750 -5.6175906576
77 1 -5.5833067813 -2.3845246875 -4.9213196320
78 1 -4.9785803125 -2.2933915625 -5.6514601376
79 1 -6.1986878438 -2.4299971875 -2.4425270160
80 1 -5.0415081250 -2.2827221875 -2.4012489920
81 1 -2.8097678125 -4.7381700000 -3.2474808640
82 1 -2.8212300000 -3.1647328125 -2.4476948640
83 1 -2.2439012500 -5.2836653125 -4.9234955680
84 1 -6.7145506200 -6.4608252500 -4.0116100080
85 1 -6.7089164644 -5.9205275625 -4.8524020400
86 1 -6.6975471031 -3.6885534375 -4.9003762480
87 1 -5.0285275000 -5.1561031250 -6.4586383621
88 1 -5.0323706250 -3.9916900000 -6.4698701292
89 1 -6.2021735313 -3.0088846875 -6.4397144539
90 1 -3.9092778125 -2.7142675000 -6.4671692746
91 1 -1.6920096875 -4.6372275000 -3.1925773360
92 1 -1.6387568750 -5.2294315625 -5.6421657824
93 1 -2.2223340625 -4.7501965625 -4.0584444400
94 1 -2.2163812500 -6.3321396875 -4.8254230240
95 1 -1.6598940625 -6.3343622500 -5.7008292760
96 1 -1.1406825000 -6.3030488438 -4.8069016640
97 1 -1.1242887500 -5.7015218438 -4.0873792080
98 1 -0.5992318750 -6.2958853125 -5.6492272128
99 1 -0.0043806250 -6.3683779375 -4.8776454880
100 1 0.5589328125 -5.9544989063 -6.4262008552
101 1 -0.0289981250 -5.8251347500 -4.0496888880
102 1 0.5651812500 -6.5080070000 -5.6250419432
103 1 1.1760903125 -6.5377750938 -4.8845877600
104 1 1.0854006250 -6.0177505625 -3.9938787200
105 1 1.7278071875 -6.6722125781 -5.6776892328
106 1 -1.6736943750 -4.6460290625 -6.4275384082
107 1 -1.0906278125 -5.1186259375 -4.8370150640
108 1 -0.5402412500 -5.2409206250 -5.6506027152
109 1 -0.5381584375 -4.0832800000 -5.6930813896
110 1 -1.1533003125 -4.5624612500 -4.0362188080
111 1 -0.5913037500 -4.6607431250 -6.4545995399
112 1 0.0470850000 -5.2479484375 -4.8476875120
113 1 -0.0375846875 -4.7193575000 -3.9822607760
114 1 0.5656381250 -5.3373615625 -5.7131038864
115 1 1.1013912500 -5.4645757188 -4.8392946160
116 1 1.1476296875 -4.9011131250 -4.0344184800
117 1 1.6690584375 -5.4963890000 -5.6783225856
118 1 -1.7277534375 -4.0640509375 -5.6596302592
119 1 -1.1152453125 -4.0342600000 -4.9193509280
120 1 -0.5433184375 -3.4942471875 -6.4214656040
121 1 -1.1003834375 -3.5202218750 -4.0098744400
122 1 -0.0068934375 -4.1842896875 -4.8422735760
123 1 1.0951428125 -3.7256543750 -4.0677439760
124 1 -0.0053346875 -3.6173481250 -4.0623818480
125 1 0.5642809375 -4.2148331250 -5.6631402512
126 1 1.1076262500 -4.3167968750 -4.8116680000
127 1 1.1444584375 -3.1615078125 -4.8873983440
128 1 1.6393078125 -4.4406234375 -5.6498916504
129 1 -2.2259218750 -2.3930575000 -4.0136564240
130 1 -1.7106475000 -2.9404206250 -5.6780039664
131 1 -1.1619003125 -2.9726437500 -4.8349816000
132 1 -1.0867309375 -2.3637234375 -4.0978314720
133 1 -0.6054265625 -2.9001887500 -5.6554519440
134 1 0.5621712500 -2.5992693750 -6.4510040647
135 1 -0.0369800000 -3.0428950000 -4.8657555520
136 1 0.5342481250 -3.1428296875 -5.6164638336
137 1 1.1107975000 -2.6585018750 -4.0344961920
138 1 1.6680103125 -2.7058421875 -6.4495950166
139 1 1.6846459375 -2.6152465625 -3.2350598960
140 1 1.6888653125 -3.2967293750 -5.6926526784
141 1 -1.6369159375 -5.7577604688 -3.2397096640
142 1 -1.7353321875 -6.3119162500 -2.4132166400
143 1 -0.5780409375 -5.7678910000 -3.2103604320
144 1 -0.6025106250 -6.3411710313 -2.4067535920
145 1 0.5153281250 -5.9142132813 -3.2173156560
146 1 0.5782828125 -6.4799441250 -2.4060153280
147 1 1.6928293750 -6.0782085625 -3.2820108960
148 1 1.6968068750 -6.6400610750 -2.4691822320
149 1 -1.7215587500 -5.2046125000 -2.4163898800
150 1 -0.5923518750 -4.6421590625 -3.2165773920
151 1 -0.5300825000 -5.1918468750 -2.4168302480
152 1 0.5942465625 -4.7552759375 -3.2761565920
153 1 0.5654365625 -5.3251737500 -2.4663198400
154 1 1.7236684375 -4.9582628125 -3.2278197280
155 1 1.6134003125 -5.5457274688 -2.4342247840
156 1 -1.7016040625 -3.5178165625 -3.2554463440
157 1 -1.6654437500 -4.0548596875 -2.4053418240
158 1 -0.5367609375 -3.4361568750 -3.2118499120
159 1 -0.5729615625 -4.0266006250 -2.4793884080
160 1 0.5591209375 -3.6585340625 -3.2070188160
161 1 0.5021996875 -4.2376096875 -2.4049144080
162 1 1.6456100000 -3.8276853125 -3.2127824560
163 1 1.6721087500 -4.4213540625 -2.4093569440
164 1 -1.7249584375 -2.9933509375 -2.3916386080
165 1 0.0204115625 -2.4891356250 -4.0705934160
166 1 -0.5985062500 -2.9087081250 -2.3496223200
167 1 0.5423240625 -2.5573309375 -3.2200096720
168 1 0.5739156250 -3.0951131250 -2.4052641120
169 1 2.1849240625 -5.6231409063 -4.8118493280
170 1 2.2103881250 -3.9400228125 -4.0018830560
171 1 2.2297381250 -2.8785275000 -4.0576025600
172 1 -1.6044509375 -2.4469284375 -3.2566120240
173 1 -0.5383868750 -2.3765696875 -3.2325860640
174 1 1.6964843750 -3.2479109375 -2.4844008320
175 1 2.2339978125 -4.4646362500 -4.8635666640
176 1 1.6513612500 -6.0855266250 -6.4359810399
177 1 -1.6449515625 -3.5085850000 -6.4675509441
178 1 1.6805878125 -3.8726068750 -6.4491356092
179 1 6.6883140625 -4.2294531250 -4.0656716560
180 1 2.2678065625 -5.0426368750 -4.0755928880
181 1 2.2442237500 -3.4050087500 -4.8789795440
182 1 6.6715171875 -5.3661446875 -4.0433294560
183 1 2.2666778125 -6.2031800000 -4.0311934320
184 1 3.3890987500 -6.3326543438 -4.0922491600
185 1 4.4545043750 -6.5230449063 -4.0489117680
186 1 6.1683634375 -6.5169550313 -6.4614596962
187 1 5.5747887500 -6.6296894750 -4.0281885680
188 1 2.8054812500 -4.0196534375 -6.4546510889
189 1 2.7386834375 -5.7299770938 -5.6210320040
190 1 3.3429543750 -5.7693771875 -4.8864917040
191 1 3.8921315625 -5.3443759375 -6.4380573750
192 1 3.3443115625 -5.2271471875 -4.0373974400
193 1 3.9018603125 -5.9233171875 -5.6604475304
194 1 4.4963487500 -5.9880321875 -4.9141053680
195 1 4.9783518750 -5.4319938125 -6.4359349308
196 1 4.4519915625 -5.4510307188 -4.0456608160
197 1 5.0800871875 -6.0168395000 -5.6883733376
198 1 5.6093768750 -6.0719211563 -4.8267182240
199 1 5.5505609375 -5.4673949063 -4.1037505360
200 1 6.1700968750 -5.9357025313 -5.6644212040
201 1 2.7571331250 -4.6067646875 -5.6974772984
202 1 3.3441906250 -4.6901712500 -4.9107508000
203 1 3.3470125000 -4.1548615625 -4.0457126240
204 1 3.9297834375 -4.7431418750 -5.6848452128
205 1 4.4573934375 -4.8908334375 -4.8594349760
206 1 5.0186912500 -4.3396137500 -6.4752372179
207 1 4.4825081250 -4.3116100000 -4.1074548080
208 1 5.0531450000 -4.8736737500 -5.6273603512
209 1 5.6322206250 -4.8908737500 -4.8748608080
210 1 6.0821618750 -4.2961031250 -6.4512208812
211 1 5.5940043750 -4.3466281250 -4.0423839600
212 1 6.2096568750 -4.8823543750 -5.6845240032
213 1 2.8227081250 -3.4564609375 -5.6673263376
214 1 3.3628418750 -3.5855953125 -4.8341008640
215 1 3.3367328125 -2.9993171875 -4.0906690160
216 1 3.9307778125 -3.6642046875 -5.6426437112
217 1 4.4943331250 -3.7019506250 -4.8044278320
218 1 4.4634268750 -3.1288143750 -4.0143299280
219 1 4.9922328125 -3.7636018750 -5.6721302344
220 1 5.5916259375 -3.7865396875 -4.8844193840
221 1 5.6379718750 -3.2563900000 -4.0321259760
222 1 6.1579493750 -3.7433650000 -5.6548328384
223 1 2.8546490625 -6.2801822500 -3.2433621280
224 1 3.9084312500 -6.4539089688 -3.1868525520
225 1 5.0066781250 -6.5625444375 -3.2320161760
226 1 6.1396071875 -6.5191950625 -3.2483875040
227 1 2.7868434375 -5.1888234375 -3.1949864080
228 1 2.7557490625 -5.7326336875 -2.3948636560
229 1 3.9082834375 -5.2943212500 -3.2371063120
230 1 3.9374025000 -5.8561055000 -2.4392242560
231 1 5.0346415625 -5.4513209688 -3.2411991440
232 1 5.0489928125 -5.9956579688 -2.4119343920
233 1 6.0968221875 -5.4259012500 -3.2416006560
234 1 6.1990681250 -5.9802827813 -2.4214800160
235 1 2.8092034375 -4.0180006250 -3.2421057840
236 1 2.8298434375 -4.5660087500 -2.4673560000
237 1 3.9414337500 -4.1821934375 -3.2555370080
238 1 3.9120862500 -4.7476031250 -2.4177239360
239 1 5.0109512500 -4.3613153125 -3.2453308320
240 1 5.0281512500 -4.8994200000 -2.4016246000
241 1 6.1480996875 -4.3347628125 -3.2205795600
242 1 6.1834268750 -4.8723971875 -2.4054583920
243 1 2.8268603125 -2.8881218750 -3.2536719200
244 1 2.7617825000 -3.4253531250 -2.4505054480
245 1 3.8969825000 -3.1343640625 -3.2281305760
246 1 3.9175284375 -3.6623100000 -2.3720681360
247 1 5.0536556250 -3.2464193750 -3.2691495600
248 1 5.0552950000 -3.7976793750 -2.4396257680
249 1 6.2018496875 -3.1644371875 -3.2402666000
250 1 6.1204050000 -3.7424781250 -2.4577715200
251 1 6.6571256250 -2.5845015625 -4.8781506160
252 1 2.2528506250 -2.2709509375 -4.8228326240
253 1 2.7934950000 -2.3974246875 -5.6389653432
254 1 3.3687006250 -2.3881125000 -4.8262649040
255 1 3.8851843750 -2.5984496875 -5.7076096480
256 1 4.4431496875 -2.5933837500 -4.8664031520
257 1 5.0127653125 -2.6496331250 -5.6933158208
258 1 5.5301493750 -2.6858203125 -4.8080802960
259 1 6.0748384375 -2.6011909375 -5.6540699656
260 1 3.9355346875 -2.5380078125 -2.4692599440
261 1 5.0051328125 -2.6912221875 -2.4597661280
262 1 6.1291931250 -2.6449837500 -2.3830384800
263 1 2.8304078125 -2.3591815625 -2.3698015360
264 1 5.0299384375 -6.6104319250 -6.4501377054
265 1 6.2005059375 -3.1729296875 -6.4484011013
266 1 2.8507253125 -5.1927471875 -6.4612462473
267 1 -3.8852650000 -2.1216200000 -5.7120379368
268 1 -6.6903220281 -2.0178153125 -4.0751913760
269 1 -5.0558459375 -1.7039018750 -6.4246720011
270 1 -5.5490828125 -1.8650712500 -4.0523829040
271 1 -4.4207225000 -2.2345353125 -4.8461850800
272 1 -4.4901675000 -1.6578246875 -4.0694536400
273 1 -3.3336556250 -2.0705037500 -4.8513917840
274 1 -2.7774640625 -1.4148209375 -6.4661921757
275 1 -3.3856050000 -1.5195393750 -4.0483548320
276 1 -2.7875287500 -1.9798812500 -5.6920102592
277 1 -6.2078307188 -1.3321400000 -5.6917007064
278 1 -5.6521538125 -1.2871378125 -4.8364840320
279 1 -5.5515983125 -0.7180328125 -4.0620580480
280 1 -5.0976231250 -1.1414887500 -5.6254602928
281 1 -4.4839862500 -1.1242618750 -4.9186126640
282 1 -4.4062368750 -0.5918815625 -4.0510618000
283 1 -3.8826581250 -1.0064956250 -5.6371274544
284 1 -3.3057459375 -0.9582550000 -4.8606654160
285 1 -3.3566068750 -0.3891634375 -4.0723807920
286 1 -2.7666737500 -0.8399243750 -5.6973115128
287 1 -6.6867191656 -0.2952890625 -4.8924237200
288 1 -6.1977660313 0.3478968750 -6.4434815431
289 1 -6.7063766156 0.2465378125 -4.0259219680
290 1 -6.1054987813 -0.2512140625 -5.6910647632
291 1 -5.5976392188 -0.1168121875 -4.7927969360
292 1 -5.6281987813 0.4787512500 -4.0507509520
293 1 -5.0709362500 -0.0444109375 -5.6955772400
294 1 -4.5224578125 -0.0136256250 -4.8249567520
295 1 -4.4569231250 0.5736200000 -4.0745308240
296 1 -3.9761025000 0.1320637500 -5.6255444808
297 1 -3.3656771875 0.1613306250 -4.9059326560
298 1 -3.2911259375 0.6776934375 -4.0502328720
299 1 -2.7785928125 0.2853453125 -5.6437290888
300 1 -6.1506702813 0.9066550000 -5.6364461792
301 1 -5.5564855313 1.0048159375 -4.9197783440
302 1 -5.0869134375 1.6319440625 -6.4275478632
303 1 -5.5947985313 1.5304506250 -4.0274373520
304 1 -4.9593378125 1.0320537500 -5.6833104008
305 1 -4.4610618750 1.1740612500 -4.8024850320
306 1 -4.5172440625 1.7639540625 -4.0469560160
307 1 -3.9173000000 1.2111756250 -5.6930878656
308 1 -3.3862903125 1.2779600000 -4.8034305280
309 1 -2.8470300000 1.4354609375 -5.6379265928
310 1 -6.1493950625 -1.8736443750 -3.2663389760
311 1 -5.0180731250 -1.7200940625 -3.2009054720
312 1 -3.9355481250 -1.5730609375 -3.2036901520
313 1 -3.8374409375 -2.1371806250 -2.4004977760
314 1 -2.8443290625 -1.3923803125 -3.2276384000
315 1 -2.7371650000 -1.9987475000 -2.4915762400
316 1 -6.1402454688 -0.8138153125 -3.2948333760
317 1 -6.1582140938 -1.3517990625 -2.4029198000
318 1 -5.0106556250 -0.5730018750 -3.2704188560
319 1 -5.0725756250 -1.1390700000 -2.4533807920
320 1 -3.8898471875 -0.4276350000 -3.1989756240
321 1 -3.9401168750 -1.0043725000 -2.4156127600
322 1 -2.8111115625 -0.3152034375 -3.2037419600
323 1 -2.7289143750 -0.8732493750 -2.3714334880
324 1 -6.1292200000 0.2961087500 -3.1983280240
325 1 -6.1484100938 -0.2912309375 -2.4340434560
326 1 -5.0194706250 0.4656765625 -3.2813114880
327 1 -5.0324646875 -0.0636265625 -2.3762386800
328 1 -3.9028278125 0.7030903125 -3.2887718400
329 1 -3.9466475000 0.1508359375 -2.4425399680
330 1 -6.1803120625 1.4915625000 -3.2198153920
331 1 -6.1419533750 0.8968859375 -2.4874316000
332 1 -5.0307850000 1.5768234375 -3.2020711520
333 1 -5.0177371875 1.0046009375 -2.4350278080
334 1 -2.7951612500 1.9940175000 -3.2747836800
335 1 -3.9043462500 1.2162012500 -2.3811215840
336 1 -2.7807965625 0.8575140625 -3.2058531360
337 1 -2.8008184375 1.4300456250 -2.4481999920
338 1 -2.2406090625 -1.8643187500 -4.8717782320
339 1 -2.2418856250 -1.3218334375 -4.0092656960
340 1 -6.2073953438 2.0643359375 -5.6943649328
341 1 -5.6352695938 2.0691196875 -4.8791997280
342 1 -5.0642443750 2.2075393750 -5.6498618608
343 1 -3.3483428125 1.8670465625 -4.0718238560
344 1 -6.1404403125 2.0467193750 -2.4040984320
345 1 -5.0239990625 2.1874100000 -2.4994640080
346 1 -3.9065903125 1.7410834375 -3.2771927520
347 1 -2.8273978125 0.2695562500 -2.4404806000
348 1 -2.2512381250 -0.2143281250 -4.0387703520
349 1 -2.2475025000 1.4119856250 -4.8881366080
350 1 -6.7009039250 1.3256900000 -4.0718756640
351 1 -6.7136386034 1.9293293750 -4.7986382880
352 1 -6.1007325000 -1.9138762500 -6.4648467349
353 1 -3.9679459375 -1.5382712500 -6.4722307349
354 1 -3.9101781250 -0.4182556250 -6.4311774022
355 1 -2.8392765625 -0.2570459375 -6.4663585960
356 1 -2.8039090625 0.8612228125 -6.4325468171
357 1 -6.1199709688 1.4685037500 -6.4434584886
358 1 -2.2086278125 -0.7672275000 -4.8461203200
359 1 -2.2026212500 1.9749900000 -4.0667078160
360 1 1.6741781250 -2.0792918750 -2.5400296720
361 1 -1.6414309375 1.0096400000 -3.2274959280
362 1 -1.6244056250 -1.8625853125 -5.6149264312
363 1 -1.1305103125 -1.2035296875 -4.0464249840
364 1 -0.5120762500 -1.8592662500 -5.6292694760
365 1 -0.5584490625 -1.3076031250 -3.2421057840
366 1 -1.0809662500 -1.7719896875 -4.8077564960
367 1 0.0667978125 -1.8919462500 -4.8175093520
368 1 0.0386059375 -1.3740515625 -3.9396357440
369 1 0.5797340625 -2.0159206250 -5.7020260408
370 1 1.1223134375 -2.0698050000 -4.8501613440
371 1 1.2226781250 -1.5462934375 -3.9457361360
372 1 1.7021818750 -2.1474065625 -5.6482091856
373 1 -1.6623396875 -0.7439537500 -5.6522074680
374 1 -1.0704312500 -0.6461556250 -4.8689158400
375 1 -0.5532890625 -0.1591940625 -6.4566752274
376 1 -0.5514884375 -0.1546118750 -3.2711830240
377 1 -0.5158118750 -0.7302609375 -5.6801552936
378 1 0.0052943750 -0.8490887500 -4.8140641200
379 1 0.5773421875 -0.8433509375 -5.6684907224
380 1 0.0403796875 -0.2671778125 -4.0400655520
381 1 0.5622115625 -1.4196181250 -6.4360219682
382 1 1.0899290625 -0.9882609375 -4.8055546560
383 1 1.1510293750 -0.3577734375 -4.1101747280
384 1 1.6560240625 -1.0738578125 -5.6064791368
385 1 -2.1992753125 0.3370662500 -4.8737339840
386 1 -1.7220962500 1.0016043750 -6.4409415264
387 1 -2.2191628125 0.8955153125 -4.0158453120
388 1 -1.6423446875 0.4155143750 -5.7165568896
389 1 -1.1388818750 -0.1307065625 -3.9926223760
390 1 -1.1310746875 0.4162668750 -4.8393723280
391 1 -0.5560840625 0.4217896875 -5.6652734456
392 1 -0.0230318750 0.3070603125 -4.8082227680
393 1 0.0102259375 0.9134140625 -4.0960829520
394 1 0.5305662500 0.2038065625 -5.6041788616
395 1 1.1518759375 0.1956634375 -4.8723740240
396 1 1.6799562500 0.0211371875 -5.6982479424
397 1 1.1136193750 0.7303281250 -3.9897081760
398 1 -1.6791365625 1.5715693750 -5.6522346672
399 1 -1.0984484375 1.0007846875 -4.0660343120
400 1 -0.5736065625 2.0330668750 -6.4480295084
401 1 -1.1131490625 1.5612090625 -4.8560286000
402 1 -0.5539475000 1.4634243750 -5.6430465184
403 1 0.0367381250 1.4948681250 -4.8646287280
404 1 0.5581668750 1.9242903125 -6.4164507191
405 1 -0.0006181250 2.0190650000 -3.9893455200
406 1 0.5652887500 1.3196431250 -5.7123513752
407 1 1.1119396875 1.2459787500 -4.8803395040
408 1 1.6994809375 1.2441109375 -5.6911036192
409 1 1.6632400000 0.6312534375 -6.3979410159
410 1 -1.6721625000 -1.3154640625 -3.2156707520
411 1 -0.5081793750 -0.7196318750 -2.4514509440
412 1 0.6984678125 -1.4557246875 -3.2343863920
413 1 0.5388303125 -1.9874600000 -2.4027514240
414 1 1.6945493750 -1.1377128125 -2.4854758480
415 1 -1.6000971875 -0.7143643750 -2.4872632240
416 1 -0.5460865625 0.3525462500 -2.3838415040
417 1 -0.5540550000 0.9087378125 -3.2196211120
418 1 0.5921100000 -0.3350909375 -3.2496697520
419 1 1.6642343750 -0.6618909375 -3.2360183440
420 1 -1.7043856250 1.5708840625 -2.4283445760
421 1 -1.7228218750 -0.1255196875 -3.2023820000
422 1 -0.5824215625 2.0031684375 -3.2249184800
423 1 -1.6675131250 0.4456278125 -2.4208712720
424 1 -0.5340331250 1.4734756250 -2.3851237520
425 1 0.5115387500 0.7488315625 -3.2248407680
426 1 1.7082556250 0.5960337500 -3.2540475280
427 1 1.6987821875 0.0122281250 -2.5309373680
428 1 -1.6879112500 2.1379600000 -3.2243615440
429 1 0.5902018750 1.9236721875 -3.2472995360
430 1 1.1628275000 1.7912456250 -4.0226192080
431 1 1.6352362500 1.1560146875 -2.4417628480
432 1 2.1669850000 -1.6919559375 -4.0201842320
433 1 1.7197446875 1.7554750000 -3.1965536000
434 1 -1.6637909375 -1.8923493750 -2.4506867760
435 1 -0.4893400000 -1.8450628125 -2.3792694480
436 1 0.4908181250 -0.8850071875 -2.3971691120
437 1 0.6007368750 0.1698365625 -2.4012360400
438 1 0.5796131250 1.3268321875 -2.4819399520
439 1 -1.1144793750 2.1334584375 -4.0606592320
440 1 2.2120140625 1.0211693750 -4.8437242000
441 1 2.2350728125 1.6143006250 -4.1125967520
442 1 -1.6615603125 -1.3175334375 -6.4662789023
443 1 -1.6822540625 -0.1942256250 -6.4495391935
444 1 0.5685003125 0.7291725000 -6.4710475179
445 1 -0.5840071875 -1.3049962500 -6.4598541663
446 1 6.6972365625 -0.8201309375 -4.0328253840
447 1 6.7032431250 0.7762037500 -4.8976951840
448 1 2.2432965625 -0.5688765625 -4.0281238080
449 1 6.7092496875 -1.4146193750 -4.7953484800
450 1 2.2627675000 -0.0548518750 -4.9045597440
451 1 3.9387193750 -1.9841543750 -6.4100266566
452 1 3.3080571875 -1.8551946875 -3.9841129120
453 1 5.0099300000 -2.0599956250 -6.4660946342
454 1 4.4767568750 -2.0512881250 -3.9772742560
455 1 5.5856059375 -2.0851103125 -4.0812399600
456 1 2.2661403125 -1.1270031250 -4.8607042720
457 1 2.8150218750 -0.6899753125 -6.4156228273
458 1 2.8249925000 -0.6914131250 -3.2559385200
459 1 2.7779343750 -1.2832812500 -5.7086691216
460 1 3.3236178125 -1.3261603125 -4.8479206480
461 1 3.3920146875 -0.7757065625 -4.0234610880
462 1 3.8897665625 -1.3749787500 -5.6645520192
463 1 4.4476512500 -1.5497871875 -4.8847431840
464 1 4.5030540625 -0.9894165625 -4.0988935360
465 1 5.0533600000 -1.5188943750 -5.6315995408
466 1 5.6181381250 -1.5198484375 -4.8670766560
467 1 6.1068600000 -0.9698246875 -6.4500506680
468 1 5.5960065625 -0.9754818750 -4.0245490560
469 1 6.1938006250 -1.5439015625 -5.6886479200
470 1 2.2782609375 0.4721131250 -4.0119467600
471 1 2.8350840625 -0.0816865625 -5.7076329616
472 1 3.3538925000 -0.2398862500 -4.8572072320
473 1 3.3636481250 0.3660912500 -4.1048644080
474 1 3.9419846875 -0.2879521875 -5.6389627528
475 1 4.5056475000 -0.3794212500 -4.8026534080
476 1 4.4461731250 0.2179293750 -4.0784164240
477 1 5.0161246875 -0.4021978125 -5.6609513632
478 1 5.6262946875 -0.4300134375 -4.8981355520
479 1 6.1943112500 0.1852225000 -6.4322980092
480 1 5.6232443750 0.0908509375 -4.0203914640
481 1 6.1835478125 -0.3918643750 -5.6766491872
482 1 2.8032909375 1.0223115625 -5.6190283296
483 1 3.3897840625 0.9410684375 -4.8652115680
484 1 3.9270556250 1.3244403125 -6.4322999520
485 1 3.3244375000 1.4876925000 -4.0351696960
486 1 3.9340565625 0.7578212500 -5.6686357848
487 1 4.5138981250 0.7896143750 -4.8708197840
488 1 4.4773212500 1.3211078125 -4.0023363760
489 1 5.0619465625 0.6825712500 -5.6979591128
490 1 5.5951734375 0.6515575000 -4.8190247360
491 1 5.5977265625 1.2570378125 -4.0921196400
492 1 6.1206603125 0.7895875000 -5.6759886352
493 1 2.6330781250 -1.7998456250 -3.2470534480
494 1 3.8635768750 -1.9739150000 -3.2526098560
495 1 5.0804634375 -2.1041646875 -3.2152692400
496 1 6.1663343750 -2.1020818750 -3.2764544880
497 1 2.7526450000 -0.1373178125 -2.4539377280
498 1 2.8247371875 -1.2611093750 -2.4468011760
499 1 3.9632159375 -0.8054706250 -3.2297625280
500 1 3.8569656250 -1.4029556250 -2.4597143200
501 1 5.0148750000 -0.9747428125 -3.2113059280
502 1 4.9744953125 -1.5419262500 -2.4308443120
503 1 6.1557859375 -1.0231312500 -3.2163313040
504 1 6.1578687500 -1.5698359375 -2.4160790320
505 1 2.7467728125 1.5414693750 -3.2299179520
506 1 2.8670653125 0.4460175000 -3.2035088240
507 1 3.9111187500 0.2514693750 -3.2181316320
508 1 3.9197859375 -0.2929643750 -2.3529639360
509 1 5.0168906250 0.1228993750 -3.2876709200
510 1 5.1034953125 -0.3970781250 -2.4184751520
511 1 6.1757540625 0.2143281250 -3.2125234160
512 1 6.1714809375 -0.4050196875 -2.5122735360
513 1 3.9007181250 1.3899750000 -3.2659504160
514 1 3.9705662500 0.8348718750 -2.4466587040
515 1 5.0844678125 1.2243578125 -3.2453955920
516 1 5.0281781250 0.6713509375 -2.4332792880
517 1 6.1622493750 1.3080734375 -3.2588138640
518 1 6.1563100000 0.7637203125 -2.4038393920
519 1 2.2816471875 2.2249543750 -4.8356939600
520 1 2.8065696875 2.0955646875 -5.6725006616
521 1 3.3919071875 2.0426612500 -4.8617663360
522 1 3.9090359375 1.9620631250 -5.7478165416
523 1 4.4540206250 1.8431815625 -4.8982780240
524 1 5.0522715625 1.8075587500 -5.6605472608
525 1 5.6180575000 1.8278493750 -4.8753529840
526 1 6.1951175000 1.8485028125 -5.6814491984
527 1 3.8904653125 1.9483971875 -2.4608540960
528 1 5.0106959375 1.7839490625 -2.4430321440
529 1 6.1779443750 1.8557321875 -2.3976612880
530 1 2.8173600000 1.0132950000 -2.3881156640
531 1 2.8559256250 2.1378659375 -2.4453505520
532 1 5.0310940625 -0.9764628125 -6.4743182087
533 1 -5.0754915625 6.6631859375 -5.6439596344
534 1 -5.0427175000 6.6703346875 -2.3564350720
535 1 -3.9033384375 2.2809215625 -2.4439517360
536 1 -6.1514604063 6.4626446875 -5.6478245112
537 1 -5.6222056563 6.5929615625 -4.8054639920
538 1 -4.4817153125 6.7031625000 -4.8695504880
539 1 -6.2097791563 6.4595540625 -2.4114681200
540 1 -3.9060125000 2.8856225000 -3.1822416400
541 1 -5.5512153438 2.6306459375 -4.0641692240
542 1 -4.4647437500 2.2717975000 -4.9404108800
543 1 -3.9232662500 2.9023521875 -6.4142405898
544 1 -4.4368340625 2.7931321875 -4.0309343920
545 1 -3.8545603125 2.3064662500 -5.6747957560
546 1 -3.3420675000 2.4597746875 -4.8245811440
547 1 -2.7646043750 2.4956931250 -5.6769626256
548 1 -6.2101795938 3.7077959375 -6.4750814623
549 1 -6.1082292813 3.1245278125 -5.7003306240
550 1 -5.6085773438 3.2148815625 -4.7915276400
551 1 -5.6262288438 3.8232375000 -4.0468394480
552 1 -5.0945325000 3.3524143750 -5.7253681352
553 1 -4.5421706250 3.3388425000 -4.8669989440
554 1 -4.4546925000 3.9009196875 -4.0729377280
555 1 -3.9765728125 3.4759587500 -5.6367414848
556 1 -3.3675315625 3.5610181250 -4.9306321200
557 1 -2.7859296875 4.1803390625 -6.4018558874
558 1 -3.3300946875 4.0709443750 -4.0326570080
559 1 -2.7634890625 3.5802471875 -5.6470357344
560 1 -6.1097060625 4.8060159375 -6.4579160290
561 1 -6.1594315313 4.2547425000 -5.6378100248
562 1 -5.5572487813 4.3461981250 -4.9080438320
563 1 -5.1268900000 4.9822218750 -6.4526915808
564 1 -5.6314049688 4.8844371875 -4.0427725200
565 1 -4.9692278125 4.4093812500 -5.6756933296
566 1 -4.4628221875 4.5145028125 -4.7820985840
567 1 -4.5393084375 5.0991684375 -4.0326440560
568 1 -3.9483271875 4.5857350000 -5.7037952840
569 1 -3.4000234375 4.6455990625 -4.8268866000
570 1 -3.3386409375 5.2224171875 -4.0486138720
571 1 -2.8666756250 4.7749081250 -5.6640689096
572 1 -6.7109837163 5.8797528125 -4.0648945360
573 1 -6.2200024063 5.3853871875 -5.6654625448
574 1 -5.5971353125 5.4237243750 -4.9177448800
575 1 -5.5833927813 5.9779137500 -4.1121952400
576 1 -5.0213787500 5.5604106250 -5.6614215208
577 1 -4.4383121875 5.6166331250 -4.9027464640
578 1 -3.9644253125 6.2698165625 -6.4136188938
579 1 -4.4929893750 6.1571431250 -4.0423580560
580 1 -3.8575971875 5.6740515625 -5.6883409576
581 1 -3.3471603125 5.8072575000 -4.8140252640
582 1 -3.4052506250 6.3778271875 -4.0205080320
583 1 -2.7924871875 5.8720128125 -5.6937134472
584 1 -6.1413097188 2.5669790625 -3.2981361360
585 1 -5.0331231250 2.7887515625 -3.2228461600
586 1 -3.3851346875 3.0346443750 -4.0468394480
587 1 -2.7874346875 3.0224296875 -3.2606141920
588 1 -6.1524561250 3.6671475000 -3.2201262400
589 1 -6.1713922500 3.0942934375 -2.4279430640
590 1 -5.0234212500 3.8490778125 -3.2842386400
591 1 -5.0456603125 3.3311562500 -2.3863930480
592 1 -3.9323634375 4.0778781250 -3.2339460240
593 1 -3.9045746875 3.4803662500 -2.4761374560
594 1 -2.8059381250 4.1727200000 -3.1903625440
595 1 -2.7863596875 3.5831631250 -2.4407396400
596 1 -6.2001095313 4.8543775000 -3.2122125680
597 1 -6.1402427813 4.2542587500 -2.4803598080
598 1 -5.0674021875 4.9586659375 -3.2192066480
599 1 -5.0472459375 4.3924768750 -2.4313364880
600 1 -3.9144109375 5.1228721875 -3.2923077360
601 1 -3.9357496875 4.6005296875 -2.3785570880
602 1 -2.7887918750 5.3609712500 -3.2278067760
603 1 -2.8038284375 4.7687537500 -2.4653872960
604 1 -6.1256133750 5.9301971875 -3.2670642880
605 1 -6.1449754688 5.3988246875 -2.3830384800
606 1 -5.0711915625 6.1409912500 -3.2232994800
607 1 -5.0124293750 5.5467312500 -2.4723684240
608 1 -3.9474134375 6.2513803125 -3.1988979120
609 1 -3.9169103125 5.6604393750 -2.4483424640
610 1 -2.8056693750 6.4038287500 -3.2555370080
611 1 -2.8123612500 5.8855175000 -2.3723919360
612 1 -2.2441162500 2.5791937500 -4.7886393440
613 1 -2.2627540625 4.3221584375 -4.0118560960
614 1 -2.7939518750 2.5055562500 -2.3643098880
615 1 -2.2515606250 3.1883156250 -4.0958757200
616 1 -2.2740146875 4.8278518750 -4.9214232480
617 1 -2.2571775000 5.9417534375 -4.8039874640
618 1 -2.2573790625 6.5223071875 -4.0555302400
619 1 -6.6845022469 3.0628093750 -4.8659886880
620 1 -6.7008218219 4.7037431250 -4.0951115520
621 1 1.7109296875 2.3061571875 -2.3764200080
622 1 -2.2168515625 3.7749834375 -4.8485034880
623 1 -2.2077275000 5.3564025000 -4.0416197920
624 1 1.1042265625 2.3391731250 -4.8410431360
625 1 -1.7050171875 2.6680156250 -5.6343803352
626 1 -1.0962984375 2.6816546875 -4.8895483760
627 1 -1.1033800000 3.2024518750 -4.0054578080
628 1 -0.5447696875 2.6238465625 -5.7057497408
629 1 0.0044881250 2.5413268750 -4.8859606720
630 1 0.0241606250 3.0899128125 -4.0286289360
631 1 0.5933865625 2.5191415625 -5.6964903560
632 1 1.6936893750 2.2971003125 -5.6114928560
633 1 1.1578690625 3.5287278125 -4.8547204480