ITEM: TIMESTEP
11000
ITEM: NUMBER OF ATOMS
2304
ITEM: BOX BOUNDS pp pp pp
-6.7187500000 6.7187500000
-6.7187500000 6.7187500000
-6.4760000000 6.4760000000
ITEM: ATOMS id type x y z
1 1 -6.1423659063 -6.1772227813 -6.4534333418
2 1 -5.5759470625 -6.2962454375 -4.0595712640
3 1 -4.4924518750 -6.4729982813 -4.0455960560
4 1 -3.3582328125 -6.5607935313 -4.0460493760
5 1 -6.7015532250 -5.0114215625 -4.0620450960
6 1 -6.1460249375 -5.6110834375 -5.6628306984
7 1 -5.5807765000 -5.7398832188 -4.8776713920
8 1 -5.6276196250 -5.1944671875 -4.0475906640
9 1 -5.0199946875 -5.8046345000 -5.6706316880
10 1 -4.4526231250 -5.9217450000 -4.8644992080
11 1 -4.4832337500 -5.3660775000 -4.0391459600
12 1 -3.9002881250 -5.9551990000 -5.6932406992
13 1 -3.3607590625 -6.0072397500 -4.8546556880
14 1 -3.3497537500 -5.4291101250 -4.0624984160
15 1 -2.7786062500 -6.0173783438 -5.6587909696
16 1 -6.1290291875 -4.5072465625 -5.6639367992
17 1 -5.5706620938 -4.6234943750 -4.8520911920
18 1 -5.6060699063 -4.0755668750 -4.0312322880
19 1 -5.0240931250 -4.6676903125 -5.6950410272
20 1 -4.4980956250 -4.8008425000 -4.8281947520
21 1 -4.4281668750 -4.2049028125 -4.0848535680
22 1 -3.9377115625 -4.8347184375 -5.6498217096
23 1 -3.3612428125 -4.8755281250 -4.8649913840
24 1 -3.3337765625 -4.3008734375 -4.0780796720
25 1 -2.7967603125 -4.9219950000 -5.6552239888
26 1 -6.1493749063 -3.3831862500 -5.6830720840
27 1 -5.6187025000 -3.5036131250 -4.8136108000
28 1 -5.5549254375 -2.9075256250 -4.0796857200
29 1 -5.0648893750 -3.5628590625 -5.6487713024
30 1 -4.4934328125 -3.6300062500 -4.8462368880
31 1 -4.4497206250 -3.0392400000 -4.0808125440
32 1 -3.9404125000 -3.7526906250 -5.6521491840
33 1 -3.3389500000 -3.7356921875 -4.9005446240
34 1 -2.8006706250 -3.2365562500 -6.4701738796
35 1 -3.3702862500 -3.2109578125 -4.0407908640
36 1 -2.7826509375 -3.7967521875 -5.6782228552
37 1 -6.1194536250 -6.1983545938 -3.2068763440
38 1 -5.0363750000 -6.3257676250 -3.2044543200
39 1 -3.9180793750 -6.5155414063 -3.2500842160
40 1 -2.7757843750 -6.5769279375 -3.2671290480
41 1 -6.1647205313 -5.0523521875 -3.1983150720
42 1 -6.1520530000 -5.6346192188 -2.4293677840
43 1 -5.0470443750 -5.1873990625 -3.2602644880
44 1 -4.9811603125 -5.7405188125 -2.4420607440
45 1 -3.8949265625 -5.3831001250 -3.2612488400
46 1 -3.8962031250 -5.9455307188 -2.4506349680
47 1 -2.7817640625 -5.4998236250 -3.2387382640
48 1 -2.7945162500 -6.0491271250 -2.4022074400
49 1 -6.1600335313 -3.9019409375 -3.2489185360
50 1 -6.1165860625 -4.4681971875 -2.4501686960
51 1 -4.9990590625 -4.0938418750 -3.2960379120
52 1 -5.0289037500 -4.6301190625 -2.4380456240
53 1 -3.8899681250 -4.3062215625 -3.2349692320
54 1 -3.9360318750 -4.8365459375 -2.4012748960
55 1 -2.8052393750 -4.3590578125 -3.2029130320
56 1 -2.7754484375 -4.9441668750 -2.4438869760
57 1 -6.1176476250 -2.8040031250 -3.2855208880
58 1 -6.1450775938 -3.3438143750 -2.4384730400
59 1 -5.0063690625 -3.0269715625 -3.2467296480
60 1 -5.0640293750 -3.5672934375 -2.4022074400
61 1 -3.9256715625 -3.1936637500 -3.2136890960
62 1 -3.9352928125 -3.7302768750 -2.4117271600
63 1 -2.8022428125 -3.2121806250 -3.2350080880
64 1 -2.7786465625 -3.7717315625 -2.4513732320
65 1 -2.2431487500 -5.3708075000 -4.0564757360
66 1 -2.2613028125 -4.2788628125 -4.0362835680
67 1 -6.1858577188 -2.2934318750 -5.6440088520
68 1 -5.6160378438 -2.3297265625 -4.8423383360
69 1 -5.0648490625 -2.4868109375 -5.6380677696
70 1 -4.4518840625 -2.4898881250 -4.8961279920
71 1 -3.8991728125 -2.6127203125 -5.6866701496
72 1 -3.3265471875 -2.6539331250 -4.8833184640
73 1 -2.7659481250 -2.6492434375 -5.7184660144
74 1 -6.1781392188 -2.2875865625 -2.3700864800
75 1 -5.0294412500 -2.4864884375 -2.4062484640
76 1 -3.8573284375 -2.5964878125 -2.4523057760
77 1 -2.7847875000 -2.6263996875 -2.4454153120
78 1 -2.2498809375 -2.6120753125 -4.8553032880
79 1 -2.2475562500 -3.1871600000 -4.0626279360
80 1 -6.6778989250 -6.0999611875 -4.0182543840
81 1 -6.7018080000 -4.4543028125 -4.8737210320
82 1 -6.6995468719 -3.3544971875 -4.8417036880
83 1 -6.7028113781 -6.6388371875 -4.8689935520
84 1 -3.9149350000 -6.5294075625 -6.4569262372
85 1 -5.0308253125 -5.2473571875 -6.4758069750
86 1 -2.7899609375 -4.3626456250 -6.4746959797
87 1 -3.9273109375 -3.1932740625 -6.4500774786
88 1 -2.2037365625 -3.7355040625 -4.8828521920
89 1 -2.2190687500 -6.5349989063 -4.0928967600
90 1 -0.5520125000 -6.2954069375 -6.4592534526
91 1 -1.1146271875 -6.3947423125 -4.0384206480
92 1 0.0326934375 -6.2122650938 -4.0307530640
93 1 0.5542565625 -6.6923220656 -5.6399833704
94 1 1.1264253125 -6.6156924375 -4.8654447040
95 1 1.1512175000 -6.0438085625 -4.0848924240
96 1 1.6873871875 -6.4835534375 -5.6473750768
97 1 -2.2312431250 -5.9510763750 -4.8322228240
98 1 -1.6684134375 -5.9374346250 -5.6472442616
99 1 -1.0948337500 -5.8290477500 -4.8658850720
100 1 -1.0940006250 -5.2718537500 -4.0771730320
101 1 -0.5486396875 -5.7185834375 -5.6792331112
102 1 0.0194843750 -5.6607027500 -4.8645769200
103 1 0.0088150000 -5.0954596875 -4.0498831680
104 1 0.5630850000 -5.5771927188 -5.7088698776
105 1 1.0923209375 -5.4516542188 -4.8493842240
106 1 1.6937431250 -4.8533428125 -6.4712000795
107 1 1.1493228125 -4.8966653125 -4.0286159840
108 1 1.6630653125 -5.3923142188 -5.6362311760
109 1 -2.2076603125 -4.8268306250 -4.8805596880
110 1 -1.6680909375 -4.8181500000 -5.7057082944
111 1 -1.1301206250 -4.6848500000 -4.8544743600
112 1 -1.0993218750 -4.1244121875 -4.0538076240
113 1 -0.5637165625 -4.6028543750 -5.6419209896
114 1 0.0162325000 -4.5455031250 -4.8759746800
115 1 0.0391837500 -3.9728909375 -4.1041002400
116 1 0.5751921875 -4.4088975000 -5.6646387976
117 1 1.1526284375 -4.3510087500 -4.8764798080
118 1 1.6678356250 -3.6736646875 -6.4734805381
119 1 1.1000206250 -3.7908800000 -4.0608794160
120 1 1.6947643750 -4.2605609375 -5.7212856648
121 1 -1.6532425000 -3.6427718750 -5.6861533648
122 1 -1.0980587500 -3.5608971875 -4.8526610800
123 1 -1.1492153125 -2.9913756250 -4.0430056560
124 1 -0.5503865625 -3.5018931250 -5.7017890192
125 1 -0.0231259375 -3.3653412500 -4.8469492480
126 1 0.0124565625 -2.8149815625 -4.0275021120
127 1 0.5476184375 -3.3214140625 -5.6411037184
128 1 1.1282393750 -3.2235084375 -4.8773734960
129 1 1.1531390625 -2.6567818750 -4.0848535680
130 1 1.6768253125 -3.1117353125 -5.6945009288
131 1 -1.6904375000 -6.4398533438 -3.2387512160
132 1 -0.5422837500 -6.2966915625 -3.2563011760
133 1 0.6036796875 -6.1108469063 -3.2449293200
134 1 0.5434125000 -6.6520212563 -2.3980498480
135 1 1.6708187500 -5.9078398750 -3.2065136880
136 1 1.7025715625 -6.4961282500 -2.4469436480
137 1 -1.6622053125 -5.3595871875 -3.2694345040
138 1 -1.6584293750 -5.8927683750 -2.4050180240
139 1 -0.5500371875 -5.1520584375 -3.2390361600
140 1 -0.5562721875 -5.7327062500 -2.4631336480
141 1 0.5764821875 -4.9932271875 -3.2611711280
142 1 0.5254734375 -5.5488248125 -2.4359085440
143 1 1.7233996875 -4.7992837500 -3.2434657440
144 1 1.6564406250 -5.3425350000 -2.4008086240
145 1 -1.6627831250 -4.2548365625 -3.2696676400
146 1 -1.6603778125 -4.8136081250 -2.4326834960
147 1 -0.5235384375 -4.0576681250 -3.2713643520
148 1 -0.5698843750 -4.5984468750 -2.4152889600
149 1 0.5475781250 -3.8448584375 -3.2191936960
150 1 0.5758909375 -4.4298196875 -2.4610742800
151 1 1.6640865625 -3.6897225000 -3.2590470000
152 1 1.6655915625 -4.2381337500 -2.4229176880
153 1 -1.7018996875 -3.1087521875 -3.2268742320
154 1 -1.6390928125 -3.7044903125 -2.4627968960
155 1 -0.5689840625 -2.9667984375 -3.2778533040
156 1 -0.5490428125 -3.5035593750 -2.4212468800
157 1 0.5921100000 -2.7438971875 -3.2761436400
158 1 0.5744396875 -3.2803625000 -2.4194595040
159 1 1.6902762500 -2.5417165625 -3.2300086160
160 1 1.6977475000 -3.1251593750 -2.4514379920
161 1 2.2218906250 -4.1431843750 -4.8479206480
162 1 2.2332318750 -3.0566146875 -4.8697059120
163 1 -1.6674593750 -2.5450087500 -5.6511337472
164 1 -1.0886659375 -2.4502206250 -4.8775677760
165 1 -0.5374462500 -2.3473700000 -5.6861702024
166 1 -1.6557284375 -2.5595212500 -2.4100304480
167 1 -0.5073462500 -2.4185753125 -2.4706717120
168 1 2.2114093750 -5.8693159063 -4.0645966400
169 1 2.2392787500 -3.5949746875 -4.0240568800
170 1 2.2385396875 -2.4829140625 -4.0444303760
171 1 0.0272915625 -2.2642993750 -4.8555105200
172 1 0.5488681250 -4.9806631250 -6.4547641598
173 1 -1.6825765625 -4.2204903125 -6.4527797839
174 1 -0.5584893750 -2.9113956250 -6.4706709514
175 1 6.6917943750 -3.9160906250 -4.0255463600
176 1 2.2559815625 -4.7427925000 -4.0953446880
177 1 6.7057425000 -5.5693183438 -4.8851576480
178 1 6.7173928125 -2.7966662500 -4.0315690400
179 1 2.2774278125 -6.4278872500 -4.8755602160
180 1 2.8300853125 -6.3248605938 -5.7062147176
181 1 3.3674509375 -6.3021015000 -4.8567150560
182 1 3.3380765625 -5.7525010313 -4.0204303200
183 1 3.9375906250 -6.2805047500 -5.6836005256
184 1 4.4671490625 -6.3695013125 -4.8423512880
185 1 4.4969534375 -5.7911056250 -4.0638583760
186 1 5.0454856250 -6.4423728750 -5.6330333272
187 1 5.6271278125 -6.4730023125 -4.8443977040
188 1 6.1696803125 -6.0847015625 -6.4522267335
189 1 5.6164584375 -5.9154871563 -4.0425393840
190 1 6.1574925000 -6.6558811781 -5.6782241504
191 1 2.2517487500 -5.3083096875 -4.8791608720
192 1 2.8238637500 -5.1886487500 -5.6489021176
193 1 3.4051296875 -5.2203478125 -4.8568963840
194 1 3.3493506250 -4.6340696875 -4.0842189200
195 1 3.9382759375 -5.1618140625 -5.6883629760
196 1 4.4967787500 -5.2216109375 -4.8374942880
197 1 4.4818765625 -4.6414871875 -4.0386019760
198 1 5.0275196875 -5.3632287500 -5.6755884184
199 1 5.6051306250 -5.3579881250 -4.8714932880
200 1 5.6283775000 -4.8184456250 -4.0304681200
201 1 6.1571028125 -5.4901378750 -5.7016646800
202 1 2.7867359375 -4.1199375000 -5.6597740264
203 1 3.3560021875 -4.0573993750 -4.8544873120
204 1 3.3971746875 -3.4907668750 -4.0779112960
205 1 3.9157009375 -4.0690496875 -5.6425426856
206 1 4.5111165625 -4.1141593750 -4.8785909840
207 1 5.0191481250 -3.6237981250 -6.4435876200
208 1 4.4858540625 -3.5409021875 -4.0699199120
209 1 5.0612478125 -4.2122396875 -5.6929402128
210 1 5.6111371875 -4.2784059375 -4.8747053840
211 1 5.5877559375 -3.7139234375 -4.0431610800
212 1 6.1814650000 -4.3378668750 -5.6800801720
213 1 2.7819521875 -2.4009318750 -6.4598818836
214 1 2.7864000000 -3.0040068750 -5.7027474672
215 1 3.3263590625 -2.9106296875 -4.8548629200
216 1 3.8972646875 -2.4217734375 -6.4640428690
217 1 3.3570906250 -2.3597593750 -4.0504660080
218 1 3.9092106250 -2.9621893750 -5.6332833008
219 1 4.4939031250 -2.9819828125 -4.8751068960
220 1 4.4739618750 -2.4297015625 -4.0616824400
221 1 5.0632096875 -3.0541287500 -5.6633176936
222 1 5.6304200000 -3.1764100000 -4.8698483840
223 1 5.5848937500 -2.6220862500 -4.0202230880
224 1 6.1837493750 -3.2139678125 -5.6809518416
225 1 2.7665931250 -5.7713054688 -3.2472477280
226 1 2.8206387500 -6.3270025313 -2.4550645520
227 1 3.9305628125 -5.7654050625 -3.2653805280
228 1 3.9153381250 -6.2955883438 -2.4216224880
229 1 5.0449481250 -5.8881579688 -3.2410566720
230 1 5.0324915625 -6.4351636563 -2.4267255760
231 1 6.1780518750 -6.0603555000 -3.2444112400
232 1 6.1565921875 -6.6190463031 -2.4446252400
233 1 2.7943953125 -4.6546962500 -3.2374560160
234 1 2.8398812500 -5.2096784375 -2.4304298480
235 1 3.9092643750 -4.6299309375 -3.2648494960
236 1 3.9297296875 -5.1871706250 -2.4625767120
237 1 5.0570418750 -4.7474015625 -3.2585936800
238 1 5.0283259375 -5.2983256250 -2.4560100480
239 1 6.1919328125 -4.9323553125 -3.2124716080
240 1 6.1226490625 -5.5000023438 -2.4292253120
241 1 2.8360918750 -3.5768206250 -3.2739936080
242 1 2.7761068750 -4.1008293750 -2.4083078320
243 1 3.9383296875 -3.4887512500 -3.2267965200
244 1 3.9268943750 -4.0633925000 -2.4584968320
245 1 5.0348700000 -3.6131959375 -3.2170954720
246 1 5.0440612500 -4.1903096875 -2.4317639040
247 1 6.1462050000 -3.7849675000 -3.2097775920
248 1 6.1719781250 -4.3554296875 -2.4309608800
249 1 2.8139603125 -2.4511478125 -3.2376243920
250 1 2.7845456250 -3.0254128125 -2.4495988080
251 1 3.9244487500 -2.3961078125 -3.2340625920
252 1 3.9014706250 -2.9336346875 -2.3960681920
253 1 5.0173878125 -2.4937446875 -3.2177430720
254 1 5.0736237500 -3.0513471875 -2.4167525360
255 1 6.1656087500 -2.6283884375 -3.2387253120
256 1 6.2066200000 -3.1991328125 -2.4621881520
257 1 2.7742390625 -5.7358506250 -6.4612784978
258 1 5.0482134375 -4.7917050000 -6.4574041660
259 1 6.1702043750 -4.9126021875 -6.4551396383
260 1 -6.6825500469 -1.6318768750 -4.0923139200
261 1 -5.5788643438 -1.7492803125 -4.0771859840
262 1 -3.9484750000 -2.0389121875 -6.4587889938
263 1 -4.4995334375 -1.9518237500 -4.0392107200
264 1 -2.8001196875 -2.0734331250 -6.4673697845
265 1 -3.3688081250 -2.1264306250 -4.0014815440
266 1 -6.6968566844 -0.4652868750 -4.0691816480
267 1 -6.1876395313 -1.2099125000 -5.6331136296
268 1 -5.5765557813 -1.1936262500 -4.8977988000
269 1 -5.1004181250 -0.7767009375 -6.4363798320
270 1 -5.6222244688 -0.6578865625 -4.0267897520
271 1 -5.0047162500 -1.3526456250 -5.6683055088
272 1 -4.4310021875 -1.4064762500 -4.8762855280
273 1 -4.5075690625 -0.8791081250 -4.0165965280
274 1 -3.8785596875 -1.4496240625 -5.6993436816
275 1 -3.3446206250 -1.5942921875 -4.8374036240
276 1 -3.3253915625 -1.0111181250 -4.0660990720
277 1 -2.8077521875 -1.4941559375 -5.6822846024
278 1 -6.7076816522 0.0777225000 -4.8939909120
279 1 -6.2203396875 0.5067012500 -6.4444942600
280 1 -6.1429396875 -0.0559940625 -5.6647488896
281 1 -5.5522460000 -0.1279250000 -4.8887583040
282 1 -5.6354711563 0.4096287500 -4.0147314400
283 1 -4.9966403125 -0.1755743750 -5.7093167216
284 1 -4.4711265625 -0.3137790625 -4.8256043520
285 1 -4.4706293750 0.2465646875 -4.0252096080
286 1 -3.9303478125 -0.3473728125 -5.6936914288
287 1 -3.3962609375 -0.4304837500 -4.8265757520
288 1 -3.3157031250 0.1606856250 -4.0859285840
289 1 -2.8401768750 -0.3904668750 -5.6298510208
290 1 -6.6944535219 1.1504515625 -4.9029018880
291 1 -6.1260930938 1.1160784375 -5.7044273416
292 1 -5.5930126875 0.9491175000 -4.8458742320
293 1 -5.6177820313 1.5177656250 -4.0399230800
294 1 -5.0494496875 0.9647184375 -5.6856404656
295 1 -4.5073809375 0.8028100000 -4.8389967200
296 1 -4.4750234375 1.3806090625 -4.0659436480
297 1 -3.9395525000 0.7456334375 -5.6428250392
298 1 -3.3682975000 0.7382562500 -4.8570259040
299 1 -3.3766556250 1.3012068750 -4.0565534480
300 1 -2.8071206250 0.6886046875 -5.6751104896
301 1 -6.1388439375 -1.7573293750 -3.2352541760
302 1 -5.0659240625 -1.9146421875 -3.1917354560
303 1 -3.9523046875 -2.0280815625 -3.2224057920
304 1 -2.7638115625 -2.0753412500 -3.2688775680
305 1 -6.1789306875 -0.6626703125 -3.2050889680
306 1 -6.1532341563 -1.2087568750 -2.3893979120
307 1 -5.0630753125 -0.7566656250 -3.2098941600
308 1 -4.9759600000 -1.3326237500 -2.4534066960
309 1 -3.8923465625 -0.8919409375 -3.2846790080
310 1 -3.8666137500 -1.4561681250 -2.4518265520
311 1 -2.7738090625 -0.9514153125 -3.2294775840
312 1 -2.7883215625 -1.5320631250 -2.4407266880
313 1 -6.1862245625 0.5350409375 -3.1906215840
314 1 -6.1402374063 -0.0624978125 -2.4740392320
315 1 -5.0336606250 0.3965809375 -3.2576481840
316 1 -5.0063153125 -0.1612903125 -2.4665400240
317 1 -3.8540631250 0.1888909375 -3.2742785520
318 1 -3.9441212500 -0.3671662500 -2.4220758080
319 1 -2.7450662500 0.1625937500 -3.2513017040
320 1 -2.8151562500 -0.3966884375 -2.4309997360
321 1 -6.1793485938 1.6890131250 -3.2484393120
322 1 -6.1212179688 1.1331709375 -2.4485496960
323 1 -5.0368184375 1.4954996875 -3.2588656720
324 1 -5.0237975000 0.9429496875 -2.4215965840
325 1 -3.9228093750 1.2998496875 -3.2285191360
326 1 -3.9167625000 0.7186912500 -2.4344190640
327 1 -2.7869509375 1.2554656250 -3.2854172720
328 1 -2.8134362500 0.7237706250 -2.4330332000
329 1 -2.2418856250 -1.4999475000 -4.8615979600
330 1 -2.2452853125 0.7442493750 -4.8552773840
331 1 -5.6123815000 2.0736078125 -4.8373000080
332 1 -5.0412931250 2.0645240625 -5.6396077624
333 1 -4.4794981250 1.9424443750 -4.8469492480
334 1 -3.9069800000 1.8508006250 -5.6311280880
335 1 -3.3029509375 1.8539181250 -4.8783189920
336 1 -2.7683803125 1.8057178125 -5.7093465112
337 1 -5.0547440625 2.0428628125 -2.4145506960
338 1 -3.9347687500 1.8480728125 -2.4289403680
339 1 -2.7999181250 1.7974268750 -2.4489771120
340 1 -5.0494631250 -1.9196140625 -6.4525667235
341 1 -6.1819796563 -0.6411031250 -6.4312689728
342 1 -3.9343790625 1.3165390625 -6.4718198197
343 1 0.5625878125 -2.2056715625 -5.7176824184
344 1 0.5344765625 -2.1984018750 -2.4432652800
345 1 -2.2188268750 -0.9276712500 -4.0456478640
346 1 -2.2363896875 -0.4048046875 -4.8987313440
347 1 -2.1911187500 -2.0554268750 -4.0500256400
348 1 -1.1004371875 -1.8881837500 -4.0755022240
349 1 0.5484650000 -1.5898846875 -6.4394616309
350 1 -0.0356093750 -1.7121121875 -4.0182932400
351 1 1.0829684375 -2.0643896875 -4.8398386000
352 1 1.1453990625 -1.5209368750 -3.9967411120
353 1 1.6479481250 -2.0008975000 -5.6409508848
354 1 -1.6874275000 -0.8672831250 -6.4372961860
355 1 -1.6861509375 -1.4584659375 -5.6924778264
356 1 -1.1393656250 -1.3085840625 -4.8650043360
357 1 -1.0924284375 -0.7670931250 -4.0382134160
358 1 -0.5637434375 -1.2459653125 -5.6302395808
359 1 0.0313093750 -1.1826881250 -4.8779174800
360 1 0.0032921875 -0.6178293750 -4.0905524480
361 1 0.5676537500 -1.0140609375 -5.6926410216
362 1 1.1257668750 -0.9809778125 -4.8565855360
363 1 1.0989187500 -0.4099915625 -4.0655809920
364 1 1.6755890625 -0.8842143750 -5.6846146672
365 1 -2.2044084375 0.1607931250 -4.0741552160
366 1 -1.6726328125 -0.2771081250 -5.6851949168
367 1 -1.1225821875 -0.2087918750 -4.8675947360
368 1 -0.5743456250 0.4316125000 -6.4355016864
369 1 -1.1218700000 0.3526000000 -4.0364519440
370 1 -0.5426734375 -0.1532815625 -5.6940825792
371 1 -0.0328950000 -0.0227496875 -4.8286480720
372 1 0.0667843750 0.5460865625 -4.0072192800
373 1 0.5475915625 0.0737584375 -5.6186604928
374 1 1.1507203125 0.1467106250 -4.8607949360
375 1 1.6696362500 0.2504884375 -5.6923716200
376 1 1.0296887500 0.6827056250 -4.0100039600
377 1 2.2298859375 0.3471578125 -4.8790184000
378 1 -2.2227103125 1.3057084375 -4.0705545600
379 1 -1.7032703125 0.8570168750 -5.6621714416
380 1 -1.0881687500 0.8738943750 -4.8870227360
381 1 -0.5002915625 1.5959718750 -6.4603581286
382 1 -1.1083921875 1.4503900000 -4.0925729600
383 1 -0.5753803125 1.0267862500 -5.7088737632
384 1 -0.0166087500 1.0836671875 -4.8707291200
385 1 0.6212425000 1.7046543750 -6.4191229758
386 1 -0.0121475000 1.6387568750 -4.0258054000
387 1 0.5600346875 1.1506934375 -5.6141661488
388 1 1.1659181250 1.2395287500 -4.8520652880
389 1 1.6745006250 1.4317656250 -5.7858190048
390 1 1.0910981250 1.8197062500 -4.0686506160
391 1 1.6501921875 0.8536171875 -6.4532876318
392 1 -1.6550296875 -1.9817893750 -3.2034699680
393 1 -0.5860228125 -1.8095206250 -3.1847543280
394 1 0.5498625000 -1.6259912500 -3.2676212240
395 1 1.7383690625 -1.3849090625 -3.2385569360
396 1 1.6212612500 -1.9884275000 -2.4614498880
397 1 -1.6540756250 -0.8973831250 -3.2402666000
398 1 -1.6490096875 -1.4157346875 -2.3742052160
399 1 -0.5499296875 -0.6700340625 -3.2274570720
400 1 -0.4928606250 -1.2185528125 -2.4466198480
401 1 0.5420821875 -0.5145084375 -3.2059438000
402 1 0.6254350000 -1.0294065625 -2.3986715440
403 1 1.6984059375 -0.3511218750 -3.2601090640
404 1 -1.6564406250 0.2579731250 -3.2096092160
405 1 -1.6566825000 -0.3255100000 -2.4508551520
406 1 -0.5295046875 0.4277962500 -3.2921523120
407 1 -0.5149518750 -0.0986581250 -2.3901232240
408 1 0.5521334375 1.0703506250 -2.4674337120
409 1 0.5563796875 0.3139403125 -2.9292890800
410 1 1.6433793750 0.7824656250 -3.2995608560
411 1 1.6224840625 0.2489028125 -2.4652189200
412 1 -1.6586309375 1.3950543750 -3.2587491040
413 1 -1.6651884375 0.8388493750 -2.4472804000
414 1 -0.5605050000 1.5362959375 -3.2250480000
415 1 -0.5445278125 0.9882878125 -2.4394832960
416 1 0.5761596875 1.6106053125 -3.2511721840
417 1 1.6993465625 1.8759690625 -3.2776072160
418 1 1.6867825000 1.3459403125 -2.4274508880
419 1 2.2339843750 -0.7853143750 -4.8522595680
420 1 2.2395743750 0.8759637500 -3.9983342080
421 1 -2.2135593750 1.8902800000 -4.8592147920
422 1 -1.6620440625 1.9211996875 -5.7154261800
423 1 -1.1211578125 2.0186753125 -4.8728014400
424 1 -0.5656515625 2.1715806250 -5.6842507160
425 1 0.0314840625 2.1548509375 -4.9102197680
426 1 -1.7337734375 1.9409662500 -2.4310515440
427 1 -0.5818840625 2.1007515625 -2.4162862640
428 1 0.5909275000 2.1890896875 -2.4465291840
429 1 1.5542215625 -0.8782346875 -2.3355564480
430 1 2.2203990625 -0.2246615625 -4.0662415440
431 1 2.2002293750 1.3953096875 -4.8606395120
432 1 -1.6879381250 0.2880865625 -6.4705689674
433 1 2.2475965625 -1.3939256250 -4.1230619680
434 1 6.6922781250 -2.2324928125 -4.8204106000
435 1 6.7006228125 -1.0464990625 -4.8378958000
436 1 6.7088196875 0.6168081250 -4.0300148000
437 1 6.6837050000 1.6815418750 -4.0488081520
438 1 2.2454062500 -1.9594428125 -4.9071112880
439 1 2.8216062500 -1.8451568750 -5.6588181688
440 1 3.4040546875 -1.8015656250 -4.8725812560
441 1 3.9032175000 -1.2602628125 -6.4479038740
442 1 3.3012981250 -1.2626143750 -4.0349624640
443 1 3.9553281250 -1.8417034375 -5.6966030384
444 1 4.4957978125 -1.8492015625 -4.8377662800
445 1 4.4569231250 -1.3117821875 -3.9775073920
446 1 5.0496915625 -1.9297862500 -5.6828441288
447 1 5.5914109375 -2.0687165625 -4.8455374800
448 1 5.6158000000 -1.5097837500 -4.0450132160
449 1 6.1540928125 -2.0944090625 -5.6643512632
450 1 2.7813475000 -0.2459331250 -3.2182741040
451 1 2.7911165625 -0.7412662500 -5.6498683368
452 1 3.3927537500 -0.7180059375 -4.8699649520
453 1 3.3338034375 -0.1670953125 -4.0240439280
454 1 3.9237903125 -0.6738234375 -5.7064439680
455 1 4.4711265625 -0.7831778125 -4.8430377440
456 1 4.4497609375 -0.2206706250 -4.0271524080
457 1 5.0214056250 -0.8148903125 -5.6678936352
458 1 5.5670890625 -0.9252121875 -4.8145692480
459 1 5.6059771875 -0.3434490625 -4.0729247760
460 1 6.1181743750 -1.0225400000 -5.6343259368
461 1 2.8083703125 0.9849015625 -6.4493441364
462 1 2.7830675000 0.4063903125 -5.7139056152
463 1 3.3193715625 0.3736162500 -4.8592406960
464 1 3.3836162500 0.9453415625 -4.0588977600
465 1 3.9087537500 0.4293684375 -5.6409897408
466 1 4.4686675000 0.3365825000 -4.8328833760
467 1 4.4848193750 0.9338256250 -4.1069237760
468 1 5.0180731250 0.2635228125 -5.6456278520
469 1 5.5972831250 0.2352906250 -4.8334532640
470 1 5.6200731250 0.8136406250 -4.0611255040
471 1 6.1222593750 0.0636265625 -5.6541010504
472 1 2.2591393750 1.9898384375 -4.0941531040
473 1 2.7686625000 1.5627006250 -5.6615342032
474 1 3.3149237500 1.5062496875 -4.8680998640
475 1 3.3395546875 2.0576709375 -4.0647779680
476 1 3.8867834375 1.4921537500 -5.6493165816
477 1 4.4514943750 1.5285290625 -4.8465995440
478 1 5.0129131250 1.9372978125 -6.4535646751
479 1 4.5052175000 2.0850968750 -4.0447153200
480 1 4.9983334375 1.3551046875 -5.6718090248
481 1 5.5821256250 1.3601437500 -4.8975268080
482 1 6.1152046875 1.7922803125 -6.4534903306
483 1 5.6144562500 1.9016615625 -4.0605685680
484 1 6.1577343750 1.2253925000 -5.6716367632
485 1 2.7619437500 -1.3308903125 -3.1960743760
486 1 2.8006840625 -1.8894334375 -2.4187082880
487 1 3.8774175000 -1.2803384375 -3.2274052640
488 1 3.9253625000 -1.8330631250 -2.4158847520
489 1 5.0727503125 -1.3509390625 -3.2467296480
490 1 5.0307446875 -1.9058003125 -2.4576290480
491 1 6.2094015625 -1.5297250000 -3.2617280640
492 1 6.1457750000 -2.0602509375 -2.4331368160
493 1 2.6918806250 0.3355343750 -2.4430580480
494 1 2.7672112500 -0.7618525000 -2.3644653120
495 1 3.8996028125 -0.0901656250 -3.2060344640
496 1 3.9242606250 -0.6995831250 -2.4755546160
497 1 5.0457946875 -0.2111300000 -3.2526487120
498 1 5.0116231250 -0.7737312500 -2.4549868400
499 1 6.1615775000 -0.4741959375 -3.2632304960
500 1 6.1359521875 -0.9936090625 -2.3741016000
501 1 2.8039493750 1.4621612500 -2.4934154240
502 1 2.8416012500 0.8972621875 -3.2522601520
503 1 3.9578275000 1.0011340625 -3.2342698240
504 1 3.8672184375 0.4507340625 -2.4033083600
505 1 5.0260818750 0.8474762500 -3.2656395680
506 1 5.0390625000 0.3153243750 -2.3854086960
507 1 6.1431950000 0.6387918750 -3.2160204560
508 1 6.1540793750 0.0667709375 -2.4189802800
509 1 2.7922990625 2.0666740625 -3.2239082240
510 1 3.9146796875 2.0836321875 -3.2871398880
511 1 3.9184421875 1.5684787500 -2.4139549040
512 1 5.0650103125 1.9381040625 -3.2417690320
513 1 5.0124428125 1.3880803125 -2.4069349200
514 1 6.1570490625 1.8178921875 -3.1873835840
515 1 6.1442565625 1.2223153125 -2.4655815760
516 1 2.7998509375 -0.1916321875 -6.4616475002
517 1 6.1331034375 0.6425543750 -6.4365563678
518 1 -6.1405142188 2.2563981250 -5.6894146784
519 1 -6.1647030625 6.6687625000 -5.7093672344
520 1 -5.6204749063 6.5833940625 -4.8791349680
521 1 -5.0341309375 6.5246856250 -5.6611236248
522 1 -4.4712206250 6.4110984375 -4.8713119600
523 1 -3.8950475000 6.3374743750 -5.6687834376
524 1 -3.3435590625 6.3149800000 -4.8494230800
525 1 -2.7841828125 6.3313200000 -5.6594864920
526 1 -6.1963739063 6.6464831250 -2.4493009120
527 1 -5.0456200000 6.5397087500 -2.4311551600
528 1 -3.8652028125 6.3823825000 -2.4231896800
529 1 -2.7689984375 6.3071459375 -2.4145247920
530 1 -6.7028709063 2.2430681250 -4.8678408240
531 1 -5.5931269063 2.6628690625 -4.0755151760
532 1 -4.4624728125 2.5179456250 -4.0683915760
533 1 -2.7699793750 2.3904506250 -6.4653731171
534 1 -3.3706356250 2.4058903125 -4.0574989440
535 1 -6.1453463438 3.3618609375 -5.6442057224
536 1 -5.5934520938 3.2336671875 -4.8337382080
537 1 -5.6090033125 3.8294053125 -4.0898400880
538 1 -5.0177237500 3.1350762500 -5.6485122624
539 1 -4.4582534375 3.0982575000 -4.8403048720
540 1 -3.8800781250 3.5210146875 -6.4499896641
541 1 -4.4793503125 3.6531590625 -4.0211556320
542 1 -3.9247443750 2.9400981250 -5.6969825320
543 1 -3.3560425000 2.9645678125 -4.8860254320
544 1 -3.3360475000 3.5056421875 -4.0361540480
545 1 -2.7734596875 2.9443309375 -5.6664313544
546 1 -6.7070726378 5.0981740625 -4.0829884800
547 1 -6.1626095000 4.4156700000 -5.6282397920
548 1 -5.5754660000 4.4109265625 -4.8366265040
549 1 -5.5869483438 4.9750865625 -4.0255981680
550 1 -5.0555368750 4.2251531250 -5.6862712280
551 1 -4.4774825000 4.1890062500 -4.8671155120
552 1 -3.9417562500 4.6961240625 -6.4638602199
553 1 -4.4635209375 4.7493365625 -4.0293283440
554 1 -3.9386521875 4.1118750000 -5.7012191312
555 1 -3.3869218750 4.0515003125 -4.8779822400
556 1 -3.3517290625 4.6067109375 -4.0484195920
557 1 -2.8036671875 4.0701650000 -5.6707741600
558 1 -6.6961207125 5.6895987500 -4.8277284800
559 1 -6.1500051250 6.0735753125 -6.4442309458
560 1 -6.7031496000 6.2502515625 -4.0266472800
561 1 -6.1847531563 5.5010975000 -5.6801837880
562 1 -5.6070857813 5.5171418750 -4.8686568000
563 1 -5.0236631250 5.9551775000 -6.4550189257
564 1 -5.5483303125 6.0555690625 -4.0062737840
565 1 -5.0545559375 5.3848362500 -5.6818066736
566 1 -4.4860018750 5.2781021875 -4.8785521280
567 1 -4.4621368750 5.8432565625 -4.0728729680
568 1 -3.9035534375 5.2455028125 -5.6399743040
569 1 -3.3207018750 5.1606450000 -4.8523631840
570 1 -3.3632584375 5.7388471875 -4.0794266800
571 1 -2.7854862500 5.2003393750 -5.6846962648
572 1 -6.1525931875 2.7872600000 -3.2801458080
573 1 -6.1321184688 2.2496525000 -2.4235393840
574 1 -5.0298846875 2.5844612500 -3.2591894720
575 1 -3.9198531250 2.4143425000 -3.2198672000
576 1 -2.8135840625 2.3792168750 -3.2327803440
577 1 -6.1499943750 3.8761409375 -3.2545138000
578 1 -6.1731001563 3.3208631250 -2.4239668000
579 1 -5.0635859375 3.6771046875 -3.2499935520
580 1 -5.0478506250 3.1358690625 -2.4150946800
581 1 -3.9025321875 3.5418428125 -3.2447220880
582 1 -3.9407081250 2.9980943750 -2.4391335920
583 1 -2.7846262500 3.5217000000 -3.1995196080
584 1 -2.7844246875 2.9333659375 -2.4341729760
585 1 -6.1788608125 4.9570400000 -3.2422094000
586 1 -6.1659514063 4.4182365625 -2.4060541840
587 1 -5.0368318750 4.7986387500 -3.2333243280
588 1 -5.0290784375 4.2365884375 -2.4355976960
589 1 -3.8992265625 4.6988787500 -3.2290242640
590 1 -3.9353196875 4.1238478125 -2.4546112320
591 1 -2.7777865625 4.6482462500 -3.2533092640
592 1 -2.8166343750 4.0989615625 -2.4285906640
593 1 -6.1465355625 6.0848225000 -3.2497992720
594 1 -6.1609996875 5.5288996875 -2.4390429280
595 1 -4.9901096875 5.9638715625 -3.1979394640
596 1 -5.0677381250 5.3717346875 -2.4614369360
597 1 -3.9229706250 5.8117590625 -3.2336869840
598 1 -3.9091568750 5.2543446875 -2.4175814640
599 1 -2.8235009375 5.7730859375 -3.2622072880
600 1 -2.7981175000 5.2093559375 -2.4408173520
601 1 -2.2667718750 2.4468343750 -4.0417104560
602 1 -2.2670406250 3.5351106250 -4.0762145840
603 1 -2.2572043750 4.1137159375 -4.8597328720
604 1 -5.0503365625 4.8102487500 -6.4515273255
605 1 -2.7814012500 5.7701431250 -6.4705049845
606 1 -0.0239053125 6.6779403125 -4.8528165040
607 1 1.6627025000 2.4364606250 -2.4462312880
608 1 -2.2084934375 4.6555562500 -4.0406742960
609 1 -2.2238525000 6.3146306250 -4.8555234720
610 1 -1.6535918750 6.4269278125 -5.6609241640
611 1 -1.0947396875 6.4859453125 -4.8553680480
612 1 -0.5443262500 6.5569759375 -5.7056189256
613 1 -1.6769193750 6.4204912500 -2.4571109680
614 1 -0.5898793750 6.5852350000 -2.4297563440
615 1 -1.0914878125 2.5794490625 -4.0715907200
616 1 0.0021096875 2.7250175000 -4.1118196320
617 1 0.6017715625 2.3255609375 -5.6791346760
618 1 1.1648565625 2.3532825000 -4.8572719920
619 1 1.6304525000 2.9511571875 -6.4587887348
620 1 1.0635781250 2.9249675000 -4.0331880400
621 1 1.6840815625 2.3635621875 -5.8108047080
622 1 -2.1891165625 2.9788115625 -4.8974750000
623 1 -1.6415653125 3.0414437500 -5.7446705008
624 1 -1.1256459375 3.1530018750 -4.8493065120
625 1 -0.5686750000 3.8006893750 -6.4397380266
626 1 -1.1390431250 3.6943046875 -4.0156769360
627 1 -0.5706368750 3.1882081250 -5.7111170496
628 1 -0.0318603125 3.3219650000 -4.8747053840
629 1 0.5370431250 3.9498859375 -6.4683997146
630 1 0.0175493750 3.8450465625 -4.0265954720
631 1 0.5526978125 3.3737128125 -5.6681863504
632 1 1.1213593750 3.4394356250 -4.8898592240
633 1 1.1310343750 4.0156625000 -4.0779631040
634 1 1.6640731250 3.5515581250 -5.6994188032