ITEM: TIMESTEP
164000
ITEM: NUMBER OF ATOMS
2304
ITEM: BOX BOUNDS pp pp pp
-6.7187500000 6.7187500000
-6.7187500000 6.7187500000
-6.4760000000 6.4760000000
ITEM: ATOMS id type x y z
1 1 -6.1772792188 -6.5571963125 -6.4572245218
2 1 -5.6730249375 -6.5088441563 -4.0783775680
3 1 -4.4505000000 -5.7756430938 -4.8280393280
4 1 -4.4918068750 -6.3255593438 -4.0324238720
5 1 -2.8468284375 -6.0775890938 -6.4703056014
6 1 -3.3102340625 -6.1608935313 -4.0604779040
7 1 -6.1292065625 -5.9837725000 -5.6592080240
8 1 -5.5774547500 -5.9253758125 -4.8432061200
9 1 -5.6097880625 -4.8255406250 -4.8624268880
10 1 -5.0309596875 -5.8806370000 -5.6578649016
11 1 -4.5095309375 -5.1637356250 -4.1017041200
12 1 -3.9721787500 -5.1349928125 -3.2508742880
13 1 -3.3610815625 -5.6121947188 -4.8900146480
14 1 -2.7898131250 -5.4914010000 -5.6994097368
15 1 -4.4874665625 -4.6062809375 -4.8794199120
16 1 -5.0067453125 -4.1662296875 -6.4147212386
17 1 -5.5656324375 -4.2713512500 -4.0077762160
18 1 -3.9004896875 -4.6082562500 -5.6260806936
19 1 -3.9582440625 -5.6739736250 -5.7120029664
20 1 -4.4640450000 -4.0488934375 -4.0385631200
21 1 -3.3115240625 -4.5000440625 -4.8390873840
22 1 -3.4050759375 -5.0593665625 -4.0447412240
23 1 -2.7911837500 -4.3524465625 -5.7018654360
24 1 -3.8891484375 -4.0489606250 -3.2097128320
25 1 -6.1878787188 -3.7613175000 -5.6307343472
26 1 -6.6241995844 -3.2017934375 -4.0873792080
27 1 -5.5766874688 -3.7628493750 -4.8802358880
28 1 -6.1659581250 -4.8576831250 -5.7121661616
29 1 -5.5576384688 -3.1840290625 -4.0970154960
30 1 -5.0264178125 -3.5785137500 -5.6734383864
31 1 -4.4335821875 -3.5199128125 -4.9223946480
32 1 -4.4601346875 -2.9999218750 -3.9890476240
33 1 -3.8452078125 -3.5248175000 -5.7275583184
34 1 -3.3587837500 -3.2854956250 -4.8476745600
35 1 -2.7623871875 -2.8101440625 -6.4731211460
36 1 -3.3038646875 -2.7525912500 -4.0298852800
37 1 -2.7660153125 -3.3808884375 -5.6414883928
38 1 -6.1772442813 -6.5922406406 -3.1849615600
39 1 -5.0793615625 -6.4274075313 -3.2867124720
40 1 -3.8911371875 -6.2328473125 -3.3042624320
41 1 -2.8243609375 -4.9360775000 -3.2989780160
42 1 -2.7556953125 -6.0615232188 -3.2091040880
43 1 -6.1824419063 -5.4553441563 -3.2517420720
44 1 -6.1335818125 -5.9930067500 -2.4364136720
45 1 -5.6043781250 -5.3763558438 -4.0222954080
46 1 -5.0082503125 -5.8983261250 -2.4037746320
47 1 -5.0298578125 -5.3426425000 -3.2171343280
48 1 -2.7186750000 -4.3946134375 -2.4479409520
49 1 -6.1517291563 -4.2988712500 -3.2655877600
50 1 -6.1610386563 -4.8725853125 -2.4712156960
51 1 -5.0004028125 -4.2059912500 -3.1990533360
52 1 -5.0765665625 -4.7816403125 -2.4148615440
53 1 -3.8705912500 -4.6001400000 -2.3827535360
54 1 -3.3793162500 -3.9044671875 -4.1363248160
55 1 -6.1027346875 -3.1899684375 -3.2091429440
56 1 -6.1736228750 -3.7694203125 -2.4157940880
57 1 -5.0382831250 -3.0246200000 -3.2128990240
58 1 -5.0258668750 -3.6207209375 -2.4654650080
59 1 -3.8557293750 -2.9144325000 -3.2418856000
60 1 -3.9254431250 -3.4653028125 -2.4238243280
61 1 -2.7311450000 -2.7860775000 -3.2182222960
62 1 -2.8482528125 -3.8503946875 -3.2650437760
63 1 -2.8553209375 -5.4733356250 -2.4575124800
64 1 -2.2624315625 -3.7601887500 -4.0832604720
65 1 -6.6976485563 -2.6443387500 -4.8923201040
66 1 -6.0995983750 -2.6885750000 -5.6417849936
67 1 -5.5517300000 -2.5737784375 -4.8314586560
68 1 -5.0095940625 -2.4654318750 -5.6734215488
69 1 -4.4505403125 -2.4721775000 -4.8472989520
70 1 -3.9358706250 -2.2966165625 -5.7215472952
71 1 -2.7722234375 -2.2730337500 -5.6614590816
72 1 -6.1251202188 -2.6222206250 -2.3921955440
73 1 -4.9976615625 -2.4551387500 -2.4214929680
74 1 -3.9039296875 -2.3329650000 -2.4815125360
75 1 -2.7648596875 -6.5906067750 -5.5882776912
76 1 -2.8508193750 -6.6175825563 -2.4206510880
77 1 -3.9072756250 -5.6972594688 -2.4375145920
78 1 -2.7461278125 -3.3164421875 -2.3813417680
79 1 -5.0403390625 -4.7725431250 -5.6901529424
80 1 -2.2751971875 -5.4349527500 -4.8555623280
81 1 -2.2435384375 -6.0103693438 -4.0598950640
82 1 -6.6709102156 -4.9280821875 -4.8179756240
83 1 -6.7173532525 -6.5674558438 -4.0729247760
84 1 -3.8667750000 -6.2628559375 -6.4723706553
85 1 -2.8181393750 -4.9185550000 -6.4732938350
86 1 -3.8541975000 -2.9117853125 -6.4182430169
87 1 -2.2147284375 -4.3640968750 -4.8394759440
88 1 -1.6151471875 -4.7971875000 -3.2817389040
89 1 -0.6880671875 -6.3350421875 -5.5738413920
90 1 -2.2132503125 -4.8975387500 -4.0093563600
91 1 -2.0750590625 -6.5413481250 -4.8647323440
92 1 -1.6523556250 -6.4411070625 -5.6633267600
93 1 -1.1524537500 -5.4521124375 -4.8836681680
94 1 -1.1135118750 -5.9053230313 -4.1088147680
95 1 -0.1635881250 -6.2791408438 -4.8515213040
96 1 0.0572706250 -5.1557134375 -4.8983039280
97 1 -0.0066246875 -5.7078764375 -4.0382004640
98 1 1.0913668750 -6.3577085625 -4.9038344320
99 1 0.4817881250 -6.3256775938 -5.5759227784
100 1 1.0454912500 -5.8154207813 -4.0761239200
101 1 1.6929234375 -6.4017660938 -5.6684894272
102 1 -1.7006365625 -5.2730765625 -5.6700255344
103 1 -0.5809165625 -4.0776765625 -5.6744745464
104 1 -1.0721109375 -4.7869078125 -4.1337732720
105 1 -0.5605050000 -5.1624187500 -5.6111224288
106 1 -0.0209490625 -4.6312075000 -4.0734946640
107 1 0.6059909375 -5.2081868750 -5.6881402016
108 1 1.1572240625 -5.2254943750 -4.8295029040
109 1 1.1162262500 -4.6571553125 -4.0244195360
110 1 -1.6702275000 -4.1866815625 -5.6715201952
111 1 -1.1267075000 -4.1941528125 -4.8223274960
112 1 -1.0802675000 -3.6105487500 -4.0141486000
113 1 0.0151171875 -4.0460178125 -4.8895483760
114 1 1.1739806250 -3.5881484375 -4.0818875600
115 1 0.0974353125 -3.5215521875 -4.0607110400
116 1 0.5771540625 -4.5890943750 -6.4087177275
117 1 0.5897718750 -4.0058665625 -5.6806681928
118 1 1.1220446875 -3.0076350000 -4.8597328720
119 1 1.1569150000 -4.1645231250 -4.9030184560
120 1 -2.1893584375 -3.1916884375 -4.8597069680
121 1 -1.6849281250 -2.5185100000 -6.4666202393
122 1 -2.2287437500 -2.6001159375 -4.1196814960
123 1 -1.6221884375 -3.1143825000 -5.6771361824
124 1 -1.0862337500 -3.0674856250 -4.8208380160
125 1 -1.1533137500 -2.4620456250 -4.0495075600
126 1 -0.5504403125 -2.9513856250 -5.7220148624
127 1 -0.0373696875 -2.9380287500 -4.8492935600
128 1 0.5338046875 -2.9029434375 -5.6490653128
129 1 1.1659987500 -2.4548968750 -4.0618637680
130 1 1.7256034375 -2.5713731250 -6.4304677621
131 1 1.7187100000 -2.5274190625 -3.2447998000
132 1 1.6652018750 -3.1002731250 -5.6370329048
133 1 -1.6713965625 -5.8780314688 -3.2024985680
134 1 -0.5845178125 -5.7224547813 -3.2131580640
135 1 -0.5736468750 -6.3379164688 -2.4809815040
136 1 0.5275831250 -5.7406921563 -3.1997009360
137 1 0.5279190625 -6.3195796563 -2.4063909360
138 1 1.5987803125 -5.8849020625 -3.2666757280
139 1 1.7309112500 -6.4064302500 -2.3792435440
140 1 -1.7533653125 -5.3159959375 -2.4092662800
141 1 -0.5656246875 -4.6222850000 -3.2052443920
142 1 -0.5363981250 -5.1806803125 -2.3986067840
143 1 0.5332134375 -4.6150825000 -3.2586454880
144 1 0.6181518750 -5.1735853125 -2.4310644960
145 1 1.6928159375 -4.7807937500 -3.2609379920
146 1 1.7082556250 -5.3303203125 -2.4369317520
147 1 -1.6946300000 -3.6827753125 -3.3136008240
148 1 -1.6875753125 -4.2152362500 -2.4744018880
149 1 -0.4843546875 -3.5359437500 -3.2945095760
150 1 -0.5833756250 -4.0462865625 -2.4116753520
151 1 0.6379990625 -3.4673453125 -3.2093113200
152 1 0.5612440625 -4.0638762500 -2.4502593600
153 1 1.7202150000 -3.6138678125 -3.2257085520
154 1 1.6788946875 -4.2053596875 -2.4843878800
155 1 -1.5927737500 -3.1453962500 -2.4436408880
156 1 0.0276946875 -2.4022487500 -4.0105868000
157 1 -0.5608409375 -2.9621356250 -2.4848541520
158 1 0.6162706250 -2.3448840625 -3.2551873040
159 1 0.5224903125 -2.8959828125 -2.4433948000
160 1 1.6899537500 -5.2923325000 -5.7143913152
161 1 2.2148359375 -5.4469295938 -4.8237133600
162 1 -1.7035659375 -2.5702175000 -3.2316923760
163 1 -0.5782693750 -2.4012140625 -3.2839407440
164 1 1.6793112500 -3.0554321875 -2.3901102720
165 1 -1.6671637500 -6.4897938125 -2.4762410720
166 1 1.7874562500 -4.2063675000 -5.6421502400
167 1 1.5862968750 -5.8423925313 -6.4686175154
168 1 2.1931881250 -5.9702785625 -4.0182414320
169 1 -0.5958993750 -5.7816469688 -6.4251254506
170 1 0.4382103125 -5.7832957500 -6.4359932148
171 1 -1.7378450000 -5.8836255000 -6.4695117863
172 1 -0.5277175000 -4.6894456250 -6.4623726827
173 1 -1.6461609375 -4.7795709375 -6.4663906522
174 1 -0.5619831250 -3.5484809375 -6.4643768104
175 1 6.7092900000 -6.0070946250 -4.9180298240
176 1 6.7104187500 -4.3556043750 -4.0297039520
177 1 2.2658312500 -6.5195605625 -4.8817383200
178 1 2.2431353125 -3.7588987500 -4.0857343040
179 1 6.1318134375 -5.9879220000 -5.6723996360
180 1 6.6717053125 -5.4932311875 -4.0274891600
181 1 6.2099793750 -4.8508031250 -5.6897332976
182 1 6.6893353125 -3.8012403125 -4.8218223680
183 1 2.8172659375 -6.4983561875 -5.7187613200
184 1 3.3472946875 -6.7162487303 -4.8502649600
185 1 3.3313981250 -6.1486345000 -4.0208318320
186 1 4.4882728125 -6.2936358750 -4.0674201760
187 1 5.6551584375 -6.4487906250 -4.0635475280
188 1 3.2916231250 -4.4362562500 -4.9078495520
189 1 2.7684071875 -5.2819050000 -5.6493101056
190 1 3.4061643750 -5.0147003125 -4.0692852640
191 1 3.8667615625 -5.6803416563 -5.6652449512
192 1 4.4196743750 -5.7099390938 -4.8462627920
193 1 5.0404331250 -4.7390165625 -5.6190231488
194 1 4.5186684375 -5.1363634375 -4.0903840720
195 1 4.9639871875 -5.8877212500 -5.6808249120
196 1 5.5470537500 -5.9183614375 -4.9105435680
197 1 5.5746678125 -5.3502212500 -4.1049162160
198 1 2.3390656250 -4.3105350000 -4.9361626240
199 1 2.8269409375 -3.8061987500 -3.2925797280
200 1 3.4072528125 -3.8949668750 -4.0710596880
201 1 3.3194387500 -5.6060927500 -4.8245681920
202 1 3.3918400000 -3.3068209375 -4.8764798080
203 1 3.7800090625 -4.5559709375 -5.6708389200
204 1 4.4334746875 -4.5983125000 -4.9533628800
205 1 4.4500565625 -4.0619278125 -4.0901897920
206 1 5.0001475000 -4.1941393750 -6.4549247646
207 1 5.6649678125 -4.7960453125 -4.9028889360
208 1 5.5196278125 -4.2610312500 -4.0523051920
209 1 2.2686531250 -3.1297550000 -4.8386470160
210 1 2.8032909375 -3.4291021875 -5.6552421216
211 1 3.9748662500 -3.4148584375 -5.6361236744
212 1 4.4367265625 -2.9767421875 -4.0033077760
213 1 4.5278462500 -2.4056350000 -4.7878104160
214 1 5.0284468750 -2.4637790625 -5.7010766592
215 1 5.6302721875 -3.6771584375 -4.8163307200
216 1 6.1662268750 -3.7719465625 -5.7169830104
217 1 5.6594987500 -3.1219478125 -3.9923762880
218 1 2.7601431250 -6.0598677188 -3.2408494400
219 1 2.8561271875 -6.6200938906 -2.4329813920
220 1 3.9320678125 -6.1895207813 -3.2739029440
221 1 5.0717828125 -6.3925802188 -3.2896655280
222 1 6.1850259375 -6.5737244375 -3.2021747680
223 1 2.2501900000 -4.8411550000 -4.0491967120
224 1 2.7791168750 -5.4695946250 -2.4888563200
225 1 3.9636996875 -5.1043284375 -3.2540863840
226 1 3.8721096875 -5.6496074063 -2.4317380000
227 1 5.0389684375 -5.2979896875 -3.2101532000
228 1 4.9897603125 -5.8557090938 -2.3987751600
229 1 6.1044950000 -5.4077848125 -3.2239470800
230 1 6.1414884375 -5.9816775938 -2.4444050560
231 1 2.7626693750 -4.3532125000 -2.4514120880
232 1 2.8450009375 -4.9206915625 -3.2885516560
233 1 3.9190871875 -4.0007737500 -3.1898444640
234 1 3.8639934375 -4.5665462500 -2.3906672080
235 1 4.9870728125 -4.1544450000 -3.2010868000
236 1 5.0627528125 -4.7296103125 -2.4205992800
237 1 6.1132428125 -4.2909834375 -3.2927740080
238 1 6.2260775000 -4.8372043750 -2.4475782960
239 1 3.3376062500 -2.7809846875 -4.0544034160
240 1 2.7956450000 -2.7221150000 -3.1825783920
241 1 6.2551562500 -3.1971843750 -3.2714032080
242 1 3.9843396875 -3.4322465625 -2.4273343200
243 1 3.8822550000 -2.8559793750 -3.2067079680
244 1 5.1199562500 -3.5676025000 -2.4670192480
245 1 5.0529165625 -3.0217981250 -3.3039645360
246 1 6.1613221875 -3.7498150000 -2.4394055840
247 1 2.2698759375 -2.5974687500 -4.0614234000
248 1 4.5556081250 -3.5013421875 -4.8874631040
249 1 3.9842053125 -2.3179956250 -5.7191343376
250 1 5.5799353125 -2.5940018750 -4.8412762720
251 1 6.1482206250 -2.6521862500 -5.6346121760
252 1 2.8084778125 -3.2939343750 -2.3833881840
253 1 3.9943103125 -2.2718915625 -2.4600769760
254 1 5.0260146875 -2.4883159375 -2.4493656720
255 1 6.1415421875 -2.6669137500 -2.4108464240
256 1 3.9861000000 -5.1344150000 -6.4736570609
257 1 5.0580765625 -5.2863931250 -6.4350811350
258 1 2.8268737500 -3.9244890625 -6.3692353688
259 1 2.7968678125 -2.7588934375 -6.3837430335
260 1 3.9542800000 -3.9944715625 -6.4363231022
261 1 5.1116250000 -3.6020831250 -5.7161152264
262 1 2.7839678125 -5.9402202188 -6.4532886680
263 1 6.1259412500 -5.4302697813 -6.4740715249
264 1 6.1961790625 -6.5732984688 -6.4361318012
265 1 2.8225065625 -4.8650468750 -6.4546898154
266 1 -3.3809287500 -2.2209365625 -4.9121107600
267 1 -6.1731700313 -2.1326118750 -6.4516071098
268 1 -5.5887476250 -2.0318843750 -4.0206764080
269 1 -4.4165300000 -1.8987456250 -4.0545976960
270 1 -2.7291428125 -1.6674728125 -6.4067543338
271 1 -3.2942971875 -1.6907196875 -3.9942284240
272 1 -6.6144582031 -1.5326140625 -4.8698483840
273 1 -6.0818004063 -1.5461590625 -5.7052744024
274 1 -5.5512932813 -1.4590840625 -4.8211618160
275 1 -5.0367781250 -0.8282875000 -6.4635309671
276 1 -5.5914028750 -0.8992509375 -4.0037999520
277 1 -4.9937512500 -1.4000396875 -5.6844100256
278 1 -4.4715565625 -1.3255421875 -4.8213431440
279 1 -4.4193384375 -0.7491809375 -4.0472539120
280 1 -3.9202562500 -1.1641846875 -5.6577807136
281 1 -3.3316668750 -1.1740612500 -4.8676594960
282 1 -3.3248406250 -0.6031825000 -4.0481216960
283 1 -2.8078462500 -1.0510006250 -5.7254160576
284 1 -6.6545075969 0.1406637500 -4.0427854720
285 1 -6.1218334063 -0.4072100000 -5.6344839512
286 1 -5.5317336563 -0.3782521875 -4.8550960560
287 1 -5.0227359375 0.3115350000 -6.4474834521
288 1 -5.5949302188 0.2159943750 -4.1023128640
289 1 -4.9879193750 -0.2527459375 -5.6633034464
290 1 -4.4156028125 -0.1886221875 -4.8551608160
291 1 -3.9330890625 0.4948359375 -6.4590630582
292 1 -4.5013206250 0.3600981250 -4.0425523360
293 1 -3.8530150000 -0.0758412500 -5.6783303568
294 1 -3.3102071875 -0.0370337500 -4.8496691680
295 1 -3.3264531250 0.5124659375 -4.0209613520
296 1 -2.7701809375 0.0984431250 -5.6943739992
297 1 -6.0989036563 1.2177465625 -6.4264724586
298 1 -6.6545041031 1.2474703125 -4.0384724560
299 1 -6.1678716250 0.6668628125 -5.6269458872
300 1 -5.5793212188 0.7932559375 -4.8740318800
301 1 -5.5598072813 1.3504284375 -4.0613974960
302 1 -4.9963715625 0.8640984375 -5.6101665712
303 1 -4.3975696875 0.9185606250 -4.8357975760
304 1 -4.4778856250 1.5229928125 -4.1017041200
305 1 -3.8753346875 1.0696518750 -5.6633241696
306 1 -3.3026150000 1.0686171875 -4.8481537840
307 1 -2.7710409375 1.2183243750 -5.6901516472
308 1 -6.1638860625 -2.0925412500 -3.2499287920
309 1 -4.9986290625 -1.9177596875 -3.2614819760
310 1 -3.8857218750 -1.7304946875 -3.2245040160
311 1 -2.7123190625 -1.6355587500 -3.2317441840
312 1 -2.8274784375 -2.2012371875 -2.4354034160
313 1 -6.1869676563 -0.9615337500 -3.2502914480
314 1 -6.0763179063 -1.5328290625 -2.4374109760
315 1 -5.0046087500 -0.8068546875 -3.2717011040
316 1 -5.0367109375 -1.3475931250 -2.4393667280
317 1 -3.8880196875 -0.5977000000 -3.2139092800
318 1 -3.9089687500 -1.1769771875 -2.4356236000
319 1 -2.7887650000 -0.4793828125 -3.2159427440
320 1 -2.7789959375 -1.0635915625 -2.4577326640
321 1 -6.1025855313 0.1538593750 -3.1913339440
322 1 -6.1047288125 -0.4366918750 -2.4176591760
323 1 -5.0592187500 0.2947112500 -3.2241413600
324 1 -4.9773171875 -0.2612115625 -2.4084503040
325 1 -3.9240993750 0.5159731250 -3.2750556720
326 1 -3.9005165625 -0.0128193750 -2.4326057840
327 1 -6.0954797813 1.2548609375 -3.2135466240
328 1 -6.1769943438 0.7140284375 -2.3909651040
329 1 -5.0090296875 1.3752878125 -3.2160593120
330 1 -4.9680856250 0.8351943750 -2.3667448640
331 1 -2.8023637500 1.8225415625 -3.2599665920
332 1 -3.8588334375 1.0737771875 -2.4170763360
333 1 -2.7781090625 0.6824368750 -3.2176524080
334 1 -2.7984400000 1.2764550000 -2.4525389120
335 1 -6.6806959406 1.7989587500 -4.8772180720
336 1 -6.1404886875 1.8265996875 -5.7157771792
337 1 -5.6026984375 1.9265746875 -4.8669471360
338 1 -5.0144450000 1.9372843750 -5.6595771560
339 1 -4.4822796875 2.1088812500 -4.8326502400
340 1 -3.9010675000 2.1445578125 -5.6076953296
341 1 -3.3164690625 2.2080768750 -4.8254877840
342 1 -3.3490550000 1.6392003125 -4.0549085440
343 1 -6.1459980625 1.8533940625 -2.4434984160
344 1 -5.0452168750 1.9388028125 -2.4293936880
345 1 -3.9383968750 1.6096646875 -3.2656136640
346 1 -3.8935559375 2.1350037500 -2.3640508480
347 1 -2.7628306250 0.1095021875 -2.4584320720
348 1 -2.2489671875 -2.0120237500 -4.8770756000
349 1 -2.2550140625 -0.9167331250 -4.8771921680
350 1 -6.6899432250 -0.4341656250 -4.8309017200
351 1 -6.1608827813 -0.9593165625 -6.4591385683
352 1 -2.8069325000 1.8096684375 -6.4428222863
353 1 -2.2024062500 -0.3824446875 -3.9910422320
354 1 -2.2105225000 0.7174415625 -4.0312322880
355 1 1.6983118750 -1.4283121875 -3.1997009360
356 1 -1.6509312500 0.8165431250 -3.2174840320
357 1 -2.1636659375 -1.4642171875 -4.0466063120
358 1 -1.6174450000 -2.0243325000 -5.5916685248
359 1 -1.0969971875 -1.3267918750 -4.1018336400
360 1 -0.5001975000 -1.8199884375 -5.6807523808
361 1 -0.5645900000 -1.2742915625 -3.2245040160
362 1 -1.0421318750 -1.9151662500 -4.8575957920
363 1 0.0467625000 -1.8324718750 -4.8181051440
364 1 0.0020425000 -1.2451456250 -4.0321648320
365 1 0.5858750000 -1.8142775000 -5.6790932296
366 1 1.1301743750 -1.8729053125 -4.8338677280
367 1 1.6783571875 -1.4330153125 -6.4441822463
368 1 1.1670065625 -1.2962753125 -4.0581076880
369 1 1.6917678125 -1.9724637500 -5.6358607488
370 1 -1.6000434375 -0.3351715625 -6.4304259271
371 1 -1.6768656250 -0.9324550000 -5.6619434864
372 1 -1.1382234375 -0.7303684375 -4.8513788320
373 1 -0.4744781250 -0.1689093750 -3.2238046080
374 1 -0.5466375000 -0.7310134375 -5.6039949432
375 1 0.0385656250 -0.7176162500 -4.8653669920
376 1 0.6139190625 -0.6869653125 -5.6471613688
377 1 0.0415084375 -0.1064250000 -4.1118714400
378 1 1.1845290625 -0.7499737500 -4.8700556160
379 1 1.0932884375 -0.1805462500 -4.0643635040
380 1 1.7607693750 -0.8493575000 -5.6576252896
381 1 -2.2164215625 0.1490084375 -4.8475450400
382 1 -1.6376012500 0.8303165625 -6.4728968433
383 1 -1.6894968750 0.2466990625 -5.7014095256
384 1 -1.0315700000 -0.1842146875 -4.0389128240
385 1 -1.1450228125 0.3755512500 -4.8493065120
386 1 -0.5608678125 0.3939875000 -5.6220448504
387 1 0.0233543750 0.4678400000 -4.8775159680
388 1 0.5766568750 0.9482978125 -6.4758070592
389 1 0.0118787500 1.0121125000 -4.0610348400
390 1 0.6153837500 0.4077878125 -5.6266246776
391 1 1.2028040625 0.3829821875 -4.8518321520
392 1 1.7134290625 0.2722571875 -5.7320241680
393 1 1.1443912500 0.9142068750 -3.9849029840
394 1 -2.2150778125 1.2696018750 -4.8833055120
395 1 -2.2091115625 1.7980584375 -4.0315431360
396 1 -1.6376953125 1.3827187500 -5.6685593680
397 1 -1.0984081250 0.9371043750 -4.0441842880
398 1 -1.0713315625 1.5004984375 -4.8626600240
399 1 -0.5163762500 1.5250218750 -5.6783821648
400 1 0.0269556250 1.6103768750 -4.8253971200
401 1 0.0088418750 2.1496909375 -3.9944874640
402 1 0.5684196875 1.5317943750 -5.7062406216
403 1 1.0885853125 1.4489118750 -4.8328445200
404 1 1.6639656250 1.4537090625 -5.6592209760
405 1 1.7494281250 0.8732090625 -6.4457768966
406 1 -1.6160743750 -1.4700893750 -3.1998952160
407 1 -0.5406443750 -0.7246709375 -2.3923768720
408 1 0.5876353125 -1.2421490625 -3.2790189840
409 1 0.5911559375 -1.7933956250 -2.4288626560
410 1 1.7553809375 -0.8559150000 -2.4294325440
411 1 -1.6953153125 -0.8706290625 -2.4392113040
412 1 -0.5596584375 0.3862878125 -2.3961588560
413 1 -0.5399725000 0.9303050000 -3.2364457600
414 1 0.5577368750 -0.1377612500 -3.1879793760
415 1 1.6542368750 -0.2946306250 -3.2453696880
416 1 -1.6556478125 1.3761075000 -2.4357531200
417 1 -1.6063859375 -0.3265446875 -3.2676212240
418 1 -0.5726121875 2.0548356250 -3.2432196560
419 1 -1.6486065625 0.2228071875 -2.4546889440
420 1 -0.4928875000 1.5075800000 -2.4337067040
421 1 0.5590000000 0.9608887500 -3.2342309680
422 1 1.7524650000 0.8507146875 -3.2576481840
423 1 1.7364878125 0.2734531250 -2.4724461360
424 1 -1.6797950000 1.9631112500 -3.1850651760
425 1 0.6107209375 2.0936028125 -3.2824512640
426 1 1.2059215625 2.0234187500 -4.0363871840
427 1 1.6448171875 1.3875831250 -2.4247439200
428 1 1.7390946875 1.9768846875 -3.1885881200
429 1 1.7302931250 2.0089600000 -6.4576005183
430 1 -1.6315812500 -2.0237278125 -2.3789715520
431 1 -0.4654750000 -1.8495509375 -2.4499226080
432 1 1.6944284375 -1.9842350000 -2.3826887760
433 1 0.6193209375 -0.7285543750 -2.4088259120
434 1 0.6329062500 0.4295834375 -2.3982441280
435 1 0.5800565625 1.5534556250 -2.4482906560
436 1 -1.1433296875 2.0493531250 -4.0361799520
437 1 0.5307678125 -0.1334881250 -6.4745089787
438 1 2.2371690625 -1.4957415625 -4.0611902640
439 1 2.2151181250 1.2724775000 -4.8839142560
440 1 -0.5215362500 -0.1661681250 -6.4446425604
441 1 0.5756356250 -1.2406843750 -6.4509830825
442 1 -0.5171959375 0.9353978125 -6.4616879105
443 1 -1.7015234375 1.9438150000 -6.4608716754
444 1 0.6256768750 2.1158821875 -6.4617698966
445 1 3.4666734375 -2.2108584375 -4.8622973680
446 1 6.6854921875 0.7012359375 -4.8579714000
447 1 2.2891587500 -2.0296537500 -4.8991976160
448 1 2.3204546875 0.7377725000 -4.0248599040
449 1 2.8787693750 -2.2100521875 -5.6346924784
450 1 6.7071265625 -2.1042990625 -4.0556597600
451 1 6.6912703125 -0.9996156250 -4.0316467520
452 1 2.2417781250 0.1616665625 -4.8234931760
453 1 2.7839678125 -1.6371578125 -6.4608758201
454 1 3.3328762500 -1.6983521875 -3.9888274400
455 1 3.3591600000 -1.1336815625 -4.8204753600
456 1 4.5611175000 -1.8332646875 -3.9996423600
457 1 6.1916103125 -2.0763087500 -6.4292342136
458 1 5.6776931250 -1.9927006250 -4.0914590880
459 1 2.8806640625 -0.4380759375 -6.4727226777
460 1 2.8729778125 -0.4319618750 -3.3003768320
461 1 2.3142465625 -0.9174184375 -4.8459648960
462 1 2.8434153125 -1.0396459375 -5.7301344712
463 1 3.4586512500 -0.5681106250 -4.0125684560
464 1 3.8953700000 -1.1574659375 -5.6992698552
465 1 4.4222946875 -1.2972831250 -4.8432579280
466 1 4.5452612500 -0.7047968750 -4.1085945840
467 1 5.0062078125 -1.3677225000 -5.5981069640
468 1 5.6133409375 -1.4380275000 -4.8930454160
469 1 5.5926068750 -0.8746737500 -4.0783646160
470 1 6.2089850000 -1.5223478125 -5.6010120976
471 1 2.2458900000 -0.3842587500 -3.9762510480
472 1 2.7864268750 0.1406234375 -5.6925231584
473 1 3.3116181250 -0.0358646875 -4.8580232080
474 1 3.3990021875 0.5694812500 -4.1284888560
475 1 3.9150962500 -0.0583456250 -5.5877622016
476 1 4.5239628125 -0.1317815625 -4.8889396320
477 1 5.0221850000 0.2851303125 -6.4614406568
478 1 4.4455281250 0.4254312500 -4.0696867760
479 1 6.2174237500 -0.4019021875 -5.6986144840
480 1 5.6764300000 -0.2865278125 -4.8573238000
481 1 5.6006559375 0.2288406250 -3.9731814240
482 1 6.1940290625 0.1686003125 -6.4746871205
483 1 2.8333237500 1.2303375000 -5.5793511728
484 1 3.4386025000 1.1619003125 -4.8663902000
485 1 3.3154881250 1.7198521875 -4.0549733040
486 1 3.9913406250 1.0172859375 -5.6490640176
487 1 4.5683603125 1.0087128125 -4.8258504400
488 1 5.0711243750 0.8705215625 -5.7222894448
489 1 4.4909603125 1.5515743750 -3.9738031200
490 1 5.1017753125 -0.2743265625 -5.6433146248
491 1 5.6005350000 0.7796706250 -4.8204753600
492 1 6.2368275000 1.3226128125 -3.2114872560
493 1 6.1465543750 0.7461709375 -5.6937678456
494 1 2.7794931250 -1.5754931250 -3.2074980400
495 1 3.9627725000 -1.7215453125 -3.2960508640
496 1 5.1400184375 -1.9088506250 -3.2285579920
497 1 6.1861815625 -2.0813478125 -3.1638368480
498 1 2.7633278125 0.1053634375 -2.4440035440
499 1 2.8550521875 -0.9776050000 -2.4665659280
500 1 4.0326878125 -0.6160153125 -3.2168105280
501 1 3.8799840625 -1.1869075000 -2.4364266240
502 1 5.0665556250 -0.8104021875 -3.1689917440
503 1 5.0001743750 -1.3735409375 -2.3715889120
504 1 6.1263175000 -0.9647587500 -3.2175746960
505 1 6.2341400000 -1.4984290625 -2.3811474880
506 1 2.7673321875 1.7857093750 -3.1923182960
507 1 2.8950825000 0.6831490625 -3.2192455040
508 1 3.9211431250 0.4829975000 -3.1919297360
509 1 3.9023843750 -0.0735165625 -2.3695295440
510 1 4.9982796875 0.3014837500 -3.2558349040
511 1 5.1191903125 -0.2210468750 -2.3834918000
512 1 6.2151528125 0.1691109375 -3.2705613280
513 1 6.2099928125 -0.3792868750 -2.4495340480
514 1 2.2626465625 1.8549662500 -4.1155757120
515 1 3.8683203125 1.5842678125 -3.2751592880
516 1 4.0231203125 1.0578537500 -2.4080617440
517 1 5.6794131250 1.3463971875 -4.0231890960
518 1 4.9948128125 1.9828106250 -2.4470084080
519 1 6.1468768750 0.7242006250 -2.4636128720
520 1 3.9356556250 2.1491937500 -5.7245702920
521 1 4.4527171875 2.0884025000 -4.8302023120
522 1 5.0211234375 1.9976053125 -5.6455345976
523 1 5.5943134375 1.8990815625 -4.8521559520
524 1 6.1556381250 1.8526012500 -5.6324245832
525 1 3.9328203125 2.1542193750 -2.4756193760
526 1 5.0944384375 1.4438056250 -3.2732035360
527 1 6.1602740625 1.8690084375 -2.3921955440
528 1 2.8774390625 -2.1461971875 -2.4161178880
529 1 2.8247909375 1.2193456250 -2.3680659680
530 1 5.1003778125 0.8671218750 -2.4690915680
531 1 6.1464603125 -0.9888656250 -6.4552352241
532 1 5.0749406250 -0.8328965625 -6.4542260042
533 1 -3.9656078125 6.6359884375 -5.6513824256
534 1 -2.7657196875 2.3664378125 -2.3850460400
535 1 -5.5765221875 6.3691331250 -4.8666751440
536 1 -5.0431071875 6.4595675000 -5.7110950312
537 1 -4.5029465625 6.5464140625 -4.8263037600
538 1 -3.3824068750 6.1679737500 -4.0827164880
539 1 -3.3528846875 6.7154309375 -4.8985888720
540 1 -5.0342653125 6.4693768750 -2.4206769920
541 1 -3.9925768750 6.6894159375 -2.4229565440
542 1 -2.3198768750 6.3367621875 -4.0044475520
543 1 -6.1612187188 6.3161490625 -5.6514989936
544 1 -3.8682128125 2.6600337500 -3.2289983600
545 1 -6.1819568125 2.4022890625 -3.2487890160
546 1 -5.5859217188 2.4523840625 -3.9802532160
547 1 -4.4406637500 2.6911953125 -4.0469689680
548 1 -2.7899609375 2.3876825000 -5.6533835096
549 1 -6.1441410000 3.0069765625 -5.6632477528
550 1 -5.5788441875 2.9804509375 -4.8443718000
551 1 -5.0297100000 3.6623234375 -6.4404060907
552 1 -5.6212489063 3.5409962500 -4.0408297200
553 1 -5.0465203125 3.0725650000 -5.7195500968
554 1 -4.5184265625 3.2327937500 -4.8749385200
555 1 -3.8962300000 3.7760046875 -6.4313514770
556 1 -4.4899525000 3.7591137500 -3.9765359920
557 1 -3.9153381250 3.2014978125 -5.6505910584
558 1 -3.3855378125 3.4325556250 -4.8314327520
559 1 -3.3557871875 3.9957615625 -4.0266731840
560 1 -2.8109368750 3.4529000000 -5.6119798512
561 1 -6.1999052813 5.1547056250 -5.6905440928
562 1 -6.7098634050 4.6328603125 -4.0467099280
563 1 -6.1424680313 4.0677059375 -5.6357791512
564 1 -3.9386118750 4.9848690625 -6.4467005037
565 1 -5.5685107500 4.6896203125 -4.0699846720
566 1 -5.5829157500 4.1157987500 -4.8347484640
567 1 -4.4532681250 4.2775996875 -4.8721538400
568 1 -3.9106618750 5.5623187500 -5.6511803744
569 1 -4.4971818750 4.8412625000 -4.0534838240
570 1 -5.0449078125 4.2414259375 -5.6641258984
571 1 -3.3856990625 4.5362178125 -4.8717911840
572 1 -3.3849600000 5.0798318750 -3.9748263280
573 1 -2.8027131250 4.5317565625 -5.6904352960
574 1 -6.7035791969 5.7867518750 -4.0585351040
575 1 -6.1425862813 5.7458750000 -6.4326663641
576 1 -5.6379826250 5.2618428125 -4.8677501600
577 1 -5.5919766563 5.8159918750 -4.0446635120
578 1 -5.0515190625 5.3499659375 -5.6347766664
579 1 -4.4766225000 5.3943634375 -4.8707420720
580 1 -4.4588850000 5.9590609375 -4.0734817120
581 1 -3.3332121875 5.5704484375 -4.8714544320
582 1 -2.8405396875 6.2331590625 -3.1784337520
583 1 -2.7933606250 5.7325315625 -5.7285970688
584 1 -6.1117270625 2.9638153125 -2.4472933520
585 1 -4.9882150000 2.5009606250 -3.2434916480
586 1 -3.3566471875 2.8269409375 -4.1221812320
587 1 -2.8200071875 2.8931609375 -3.2627512720
588 1 -6.1848095938 3.5453365625 -3.2354873120
589 1 -5.0648625000 3.6832859375 -3.2198283440
590 1 -5.0259340625 3.0801975000 -2.4888692720
591 1 -3.8829268750 3.7898990625 -3.2323270240
592 1 -3.9439600000 3.2313962500 -2.4363489120
593 1 -2.7455768750 3.9338550000 -3.2647717840
594 1 -2.7906865625 3.4161753125 -2.3634421040
595 1 -6.1349564688 4.6365421875 -3.2616503520
596 1 -6.1838246250 4.0900525000 -2.4056008640
597 1 -5.0481731250 4.8159193750 -3.1979394640
598 1 -5.0330828125 4.2398671875 -2.4174519440
599 1 -3.9643984375 4.9830550000 -3.1955951520
600 1 -3.8916612500 4.3801815625 -2.4853851840
601 1 -2.7793184375 5.0647281250 -3.2540863840
602 1 -2.8071071875 4.4989287500 -2.4547148480
603 1 -6.1413271875 6.2757021875 -2.4079192720
604 1 -6.1599650000 5.7305293750 -3.2421057840
605 1 -5.0252353125 5.9255343750 -3.2626994640
606 1 -5.0868328125 5.3849571875 -2.4003294000
607 1 -3.9149484375 6.1083246875 -3.2141683200
608 1 -3.9286009375 5.5521465625 -2.4045776560
609 1 -2.7659212500 5.6362384375 -2.4687030080
610 1 -2.2621628125 5.8131565625 -4.8899887440
611 1 -6.1843782500 5.1787721875 -2.4128280800
612 1 -5.0548650000 4.7921753125 -6.4701426393
613 1 -3.9200546875 4.3865240625 -5.7214384984
614 1 -2.3064662500 4.6998328125 -4.8346578000
615 1 -6.7187464298 4.0562975000 -4.8139864080
616 1 -6.6887923031 2.8949615625 -4.8532180160
617 1 -5.0092043750 2.4844593750 -6.4720665035
618 1 -6.1636804688 2.4207253125 -6.4366728062
619 1 -2.7977546875 5.1172015625 -6.4351683019
620 1 -2.2370078125 2.9099443750 -4.0643116960
621 1 -2.2312431250 4.1185265625 -4.1240074640
622 1 -2.2289990625 5.2897390625 -4.0452981600
623 1 -1.6980162500 6.3802728125 -3.2504468720
624 1 1.1075053125 2.5472259375 -4.8680998640
625 1 -2.2006056250 2.3540618750 -4.8814533760
626 1 -1.6515359375 2.5333584375 -5.6908264464
627 1 -1.0926971875 2.6074796875 -4.8737080800
628 1 -1.0913534375 3.1321200000 -4.0057686560
629 1 -0.5339928125 2.6464081250 -5.7112931968
630 1 -0.0182212500 2.6914640625 -4.8438278160
631 1 0.0159906250 3.2664143750 -4.0412441840
632 1 0.5596450000 2.6714959375 -5.6582159008
633 1 1.7215453125 2.5506793750 -5.5899277760
634 1 1.1790734375 3.7362968750 -4.8340490560