ITEM: TIMESTEP
128000
ITEM: NUMBER OF ATOMS
2304
ITEM: BOX BOUNDS pp pp pp
-6.7187500000 6.7187500000
-6.7187500000 6.7187500000
-6.4760000000 6.4760000000
ITEM: ATOMS id type x y z
1 1 -6.1792021250 -6.5590076875 -5.7324282704
2 1 -5.6398853750 -6.4682575313 -4.8498893520
3 1 -5.6309145000 -5.9176129688 -4.0018312480
4 1 -5.0849381250 -6.3819296563 -5.6999964624
5 1 -4.5470484375 -6.3154758438 -4.8480242640
6 1 -3.9508400000 -5.1661275000 -5.6622362016
7 1 -4.4667996875 -5.7572605938 -4.0555561440
8 1 -3.9869600000 -6.2699065938 -5.6503268376
9 1 -3.3915443750 -6.2859093125 -4.8857404880
10 1 -2.8500131250 -5.8039370938 -6.4481959416
11 1 -3.3752178125 -5.7285567500 -4.0625113680
12 1 -2.8167821875 -6.3589125625 -5.6321266872
13 1 -6.7066695397 -4.9547959375 -4.0949949840
14 1 -6.1409442188 -5.4409351250 -5.6629861224
15 1 -5.5783765625 -5.3763370313 -4.8631003920
16 1 -6.2067745313 -4.8708518750 -6.4724254552
17 1 -5.6397483125 -4.8146428125 -4.0620710000
18 1 -5.0399493750 -5.2889328125 -5.7305554112
19 1 -4.5183190625 -5.1801562500 -4.8432838320
20 1 -4.4985256250 -4.6443225000 -3.9990854240
21 1 -3.3451446875 -4.6212368750 -4.0309084880
22 1 -2.8213643750 -5.2004065625 -5.6818248064
23 1 -6.6897078000 -3.8728890625 -4.0182932400
24 1 -6.1366630313 -4.3351793750 -5.6372155280
25 1 -5.0184090625 -4.1289943750 -5.6466847352
26 1 -5.6124406250 -3.6662337500 -4.0890888720
27 1 -4.4395753125 -4.0952528125 -4.8569352400
28 1 -3.8809784375 -4.0465553125 -5.6903938496
29 1 -4.5075018750 -3.5381206250 -4.0415161760
30 1 -3.3667656250 -4.0477512500 -4.8178072480
31 1 -3.3887359375 -5.1677534375 -4.8631651520
32 1 -3.9236021875 -3.4653968750 -3.2612358880
33 1 -2.8171853125 -4.1273281250 -5.6995405520
34 1 -6.1598843750 -3.2163462500 -5.6688235888
35 1 -6.6897401844 -2.7849353125 -4.0096024480
36 1 -5.6160472500 -3.0781415625 -4.8671932240
37 1 -5.5750870625 -4.2401090625 -4.8471305760
38 1 -5.0380546875 -2.4496025000 -6.4591956866
39 1 -5.5478277500 -2.5571159375 -3.9999920640
40 1 -5.0221178125 -3.0355984375 -5.6641530976
41 1 -4.4851956250 -2.9710043750 -4.8276248640
42 1 -3.9001537500 -2.3616003125 -6.4687971726
43 1 -4.4455012500 -2.3733715625 -4.0722124160
44 1 -3.9347150000 -2.9388484375 -5.6648317824
45 1 -3.3645484375 -2.9335137500 -4.8648877680
46 1 -3.3615250000 -2.3638040625 -4.0721735600
47 1 -2.8017993750 -3.0147703125 -5.6356599928
48 1 -6.2270275313 -6.0107348438 -3.2485558800
49 1 -6.1658586875 -6.5868288219 -2.4571886800
50 1 -5.0429459375 -5.8251992500 -3.2540604800
51 1 -5.0924362500 -6.3672827813 -2.4243165040
52 1 -3.9386790625 -5.7434226563 -3.2119664800
53 1 -3.9017125000 -6.2929747500 -2.4025312400
54 1 -2.8369787500 -5.7905157188 -3.2262525360
55 1 -2.7664990625 -6.3626119063 -2.4359214960
56 1 -6.1839684063 -4.8902153125 -3.1965406480
57 1 -6.1263175000 -5.4666625625 -2.4137606240
58 1 -5.0921406250 -4.6990668750 -3.2449940800
59 1 -5.0353000000 -5.2560243750 -2.4369576560
60 1 -3.9131478125 -4.6146928125 -3.2512628480
61 1 -3.9405468750 -5.1505265625 -2.4294843520
62 1 -2.8512762500 -4.1216978125 -2.4173871840
63 1 -6.1194267500 -3.7826831250 -3.2016955440
64 1 -6.1901308438 -4.3298446875 -2.3799559040
65 1 -5.0621078125 -3.5970171875 -3.2257474080
66 1 -5.0028753125 -4.1534237500 -2.4011583280
67 1 -3.9384506250 -4.0360203125 -2.4630559360
68 1 -3.3478590625 -3.4778534375 -4.0284994160
69 1 -6.1387135938 -2.6174503125 -3.2348138080
70 1 -6.1792827500 -3.1824434375 -2.4530958480
71 1 -4.9803809375 -2.4835993750 -3.2100107280
72 1 -5.0486703125 -3.0421962500 -2.4049403120
73 1 -3.9128925000 -2.3711678125 -3.2136631920
74 1 -3.9060796875 -2.9484025000 -2.3956407760
75 1 -2.8350437500 -2.4047750000 -3.2047651680
76 1 -2.7830809375 -3.5563150000 -3.2142719360
77 1 -2.2736921875 -5.3064150000 -4.8459001360
78 1 -2.7653165625 -4.6612806250 -3.2571560080
79 1 -2.2797390625 -4.1699115625 -4.8466124960
80 1 -2.2806393750 -2.5369865625 -4.0242511600
81 1 -2.8107487500 -5.2200925000 -2.4500003200
82 1 -2.7742793750 -2.9853018750 -2.4284093360
83 1 -5.0791062500 -4.6887603125 -6.4558153442
84 1 -2.2701984375 -5.8551554688 -4.0286159840
85 1 -6.7122233928 -5.5333837813 -4.8704830320
86 1 -6.6870478469 -6.6923575406 -4.8561063120
87 1 -6.2003594688 -3.7783696875 -6.4599219053
88 1 -5.0598100000 -3.5912390625 -6.4716498895
89 1 -2.8079671875 -2.4458400000 -6.4268243645
90 1 -6.1093190625 -2.6345562500 -6.4534494023
91 1 -2.1999337500 -4.7421878125 -4.0587811920
92 1 -1.6649734375 -4.8392334375 -3.2104381440
93 1 -1.7334643750 -5.3957112188 -5.7128305992
94 1 -2.2322643750 -6.4037602188 -4.8804949280
95 1 -1.6534440625 -6.5313667500 -5.6699607744
96 1 -1.1019018750 -6.0295298750 -4.0367886960
97 1 0.5771809375 -6.2435059375 -6.4332113842
98 1 0.0224943750 -6.2120702500 -4.0441324800
99 1 1.1100315625 -6.3936888125 -4.0717590960
100 1 -1.1800678125 -5.4825470313 -4.8668176160
101 1 -0.6075228125 -5.5712667813 -5.6476613160
102 1 -0.5216571875 -4.4191100000 -5.6626441896
103 1 -1.1072634375 -4.9179100000 -4.0682620560
104 1 -0.0190543750 -5.6740488750 -4.8975527120
105 1 -0.0425028125 -5.1201040625 -4.0689614640
106 1 0.5777856250 -5.6791054063 -5.6420984320
107 1 1.1424025000 -5.8310929375 -4.8738635040
108 1 1.0906278125 -5.2654306250 -4.0835065600
109 1 -1.6711143750 -3.7107790625 -6.4343606152
110 1 -2.2379350000 -3.6095543750 -4.0549344480
111 1 -1.7273771875 -4.2833778125 -5.6526426552
112 1 -1.1143853125 -4.3806921875 -4.9227184480
113 1 -1.1612284375 -3.8402762500 -4.0487433920
114 1 0.0312825000 -4.5546406250 -4.8524538480
115 1 1.1133103125 -4.1081796875 -4.0518648240
116 1 -0.0316453125 -3.9779031250 -4.0711633040
117 1 0.5927012500 -4.5936765625 -5.6803495736
118 1 1.1173953125 -3.5358362500 -4.8408229520
119 1 1.1384653125 -4.6754571875 -4.8288553040
120 1 -2.2048921875 -3.0616403125 -4.8991199040
121 1 -1.6254403125 -3.1340012500 -5.6666411768
122 1 -1.0837343750 -3.2807925000 -4.8385434000
123 1 -1.1247859375 -2.7072396875 -4.0443656160
124 1 -0.5213078125 -3.3151521875 -5.6665336752
125 1 0.0150500000 -3.3898646875 -4.8095568240
126 1 0.5510584375 -3.5294400000 -5.6641388504
127 1 1.1568478125 -2.9998815625 -4.0061960720
128 1 1.7296750000 -3.1190587500 -6.4523049636
129 1 1.7345259375 -3.0946293750 -3.2358370160
130 1 1.6546400000 -3.6720790625 -5.6688041608
131 1 -1.6783168750 -5.9421377500 -3.2708333200
132 1 -1.6876693750 -6.5033186563 -2.4596236560
133 1 -0.5421090625 -6.1239874375 -3.2312649600
134 1 -0.5971221875 -6.6836320344 -2.4313623920
135 1 0.5746278125 -6.2634350938 -3.2113318320
136 1 1.6773896875 -6.4520411563 -3.2406292560
137 1 -1.7126765625 -5.4088732500 -2.4200034880
138 1 -0.5728003125 -4.9818053125 -3.2060733200
139 1 -0.5712818750 -5.5535292813 -2.4383305680
140 1 0.5417462500 -5.1487259375 -3.2683594880
141 1 0.5392200000 -5.6943193438 -2.4083207840
142 1 1.6362306250 -5.3791817500 -3.2337906000
143 1 1.6644493750 -5.9135266250 -2.3817303280
144 1 -1.6948046875 -3.7117331250 -3.2017214480
145 1 -1.6706575000 -4.2712437500 -2.4103024400
146 1 -0.5784843750 -3.8639800000 -3.2569617280
147 1 -0.5255271875 -4.4129421875 -2.4191357040
148 1 0.5307946875 -4.0803506250 -3.2666109680
149 1 0.5716715625 -4.6283587500 -2.3948507040
150 1 1.6588862500 -4.2300712500 -3.2500194560
151 1 1.6850490625 -4.8046453125 -2.4607893360
152 1 -1.6412696875 -3.1256565625 -2.4409080160
153 1 0.0401512500 -2.8077656250 -4.0376564800
154 1 -0.5494190625 -3.3324328125 -2.4059117120
155 1 0.5755684375 -2.9696875000 -3.2192325520
156 1 0.5679225000 -3.5336862500 -2.4362971040
157 1 2.2208962500 -6.5364367188 -4.1024294320
158 1 1.7405996875 -5.9271603125 -5.6607959392
159 1 2.2286093750 -4.8534771875 -4.8889137280
160 1 2.2087353125 -5.3997384375 -4.0342242000
161 1 -0.0125775000 -2.2488596875 -4.8460426080
162 1 0.5320175000 -2.4003137500 -5.6829024128
163 1 1.0911787500 -2.4515240625 -4.8720761280
164 1 1.6843234375 -2.5454253125 -5.6490963976
165 1 -1.6877634375 -2.5696665625 -3.2595521280
166 1 -0.5491368750 -2.7873137500 -3.2683465360
167 1 0.5476721875 -2.3761934375 -2.4581600800
168 1 1.6699990625 -3.6747128125 -2.4509458160
169 1 1.6600553125 -2.5603946875 -2.3925841040
170 1 1.6713965625 -4.8164971875 -5.7013680792
171 1 2.2284346875 -3.7880984375 -4.8665456240
172 1 -0.5782021875 -2.2507678125 -5.6596794768
173 1 -1.1206740625 -6.5953820594 -4.8284278880
174 1 -0.5728809375 -6.6948836563 -5.7081070048
175 1 -0.5400396875 -5.0112334375 -6.4295040038
176 1 1.6739093750 -4.2418559375 -6.4700648237
177 1 0.5921503125 -2.9686125000 -6.4699991571
178 1 6.6754409375 -6.1021085000 -4.0793489680
179 1 2.2905428125 -5.9576392500 -4.8449287360
180 1 2.2400581250 -2.6499556250 -4.8295288080
181 1 6.1571834375 -5.6473525938 -5.6543639760
182 1 6.6833690625 -4.3923290625 -4.9093001760
183 1 6.7044390625 -3.3090650000 -4.8640199840
184 1 3.3249615625 -6.5602318438 -4.0066493920
185 1 4.4959456250 -6.4655713750 -4.0154567520
186 1 5.6185412500 -6.2918352500 -4.1152130560
187 1 6.1768021875 -6.6678994094 -5.6533537200
188 1 2.8098350000 -4.9513559375 -5.7063973408
189 1 3.4168740625 -6.0241763750 -4.8522466160
190 1 2.7638921875 -5.4923564063 -3.2247889600
191 1 3.9592653125 -5.9290711250 -5.6980225776
192 1 4.4946018750 -5.9089753438 -4.8387247280
193 1 4.9877312500 -4.6822162500 -5.6712119376
194 1 4.4752921875 -5.3562681250 -4.0105220400
195 1 5.0397343750 -5.8491704063 -5.6911308184
196 1 5.5713487500 -5.6825467500 -4.8559379360
197 1 5.6399606250 -5.1575946875 -4.0148221040
198 1 2.2511575000 -4.3310809375 -3.9999402560
199 1 3.3214275000 -4.8926071875 -4.8309017200
200 1 3.3294900000 -5.4577427500 -4.0476813280
201 1 3.3652471875 -4.3158025000 -4.0523310960
202 1 3.8944428125 -4.8501178125 -5.6339451480
203 1 4.4679150000 -4.8089318750 -4.8103339440
204 1 4.4660471875 -4.1958728125 -4.0906560640
205 1 5.5623321875 -4.6073559375 -4.8615850080
206 1 5.6147921875 -4.0756340625 -4.0090584640
207 1 6.1104075000 -4.5326971875 -5.6788937688
208 1 2.7972843750 -2.6397296875 -5.6304714216
209 1 2.2830043750 -3.2328609375 -4.0701530480
210 1 2.7902834375 -3.7852228125 -5.6700630952
211 1 3.3637421875 -3.7679959375 -4.8962963680
212 1 3.9145184375 -3.2107965625 -6.4297919267
213 1 3.3867606250 -3.2328340625 -4.0395733760
214 1 4.5062118750 -3.6099171875 -4.8410431360
215 1 4.5083081250 -2.5075987500 -4.9108026080
216 1 5.1163818750 -2.5062281250 -5.6570709440
217 1 5.6148862500 -3.4989368750 -4.7867354000
218 1 6.1278493750 -3.3664565625 -5.6633319408
219 1 5.5875543750 -2.8969503125 -4.0781962400
220 1 6.1856037500 -3.9142362500 -6.4404633386
221 1 2.7426475000 -6.6068564750 -3.2225612160
222 1 3.9229034375 -6.5446725625 -3.2529207040
223 1 5.0932021875 -6.3448891875 -3.2516902640
224 1 6.1346218750 -6.1687679063 -3.2042470880
225 1 2.8464656250 -6.0474944688 -2.4241610800
226 1 3.8771756250 -5.3944548125 -3.2484134080
227 1 3.9406140625 -5.9692277500 -2.4660348960
228 1 5.0503365625 -5.2282490625 -3.2570912480
229 1 4.9899350000 -5.7918809688 -2.4343931600
230 1 6.2105303125 -5.0657090625 -3.2231311040
231 1 6.1157421875 -5.6086875313 -2.3880768080
232 1 2.8340359375 -4.3269825000 -3.2198412960
233 1 2.7812400000 -4.9034109375 -2.4633538320
234 1 3.9352659375 -4.3141228125 -3.2214732480
235 1 3.9444168750 -4.8606931250 -2.3871054080
236 1 4.9988575000 -4.1111628125 -3.2522212960
237 1 5.0650909375 -4.6787493750 -2.4370612720
238 1 6.1748134375 -3.9087000000 -3.2311354400
239 1 6.1102328125 -4.4894553125 -2.4491972960
240 1 2.8243878125 -3.1862462500 -3.2275736400
241 1 2.7605462500 -3.7576625000 -2.4371778400
242 1 6.1312625000 -2.7919900000 -3.2649272080
243 1 3.9082028125 -3.7514006250 -2.4107557600
244 1 4.4712340625 -3.0481356250 -4.0395992800
245 1 5.0988056250 -3.5838753125 -2.3695036400
246 1 5.0551740625 -3.0564803125 -3.2226648320
247 1 6.2063915625 -3.3461390625 -2.4289274160
248 1 3.3949709375 -2.6801093750 -4.8743297760
249 1 3.9664946875 -3.7905978125 -5.6578454736
250 1 3.9478434375 -2.6178131250 -5.6861779736
251 1 5.6384556250 -2.3077159375 -4.8273917280
252 1 2.8312006250 -2.6439356250 -2.3734540000
253 1 3.9412321875 -3.1882215625 -3.1963463680
254 1 5.0363346875 -2.4739109375 -2.4446511440
255 1 3.9315975000 -2.5856975000 -2.4709955120
256 1 5.0601728125 -5.2281415625 -6.4193794254
257 1 2.8519481250 -6.0529420313 -5.6715253760
258 1 2.7859431250 -4.3659243750 -6.4458761089
259 1 5.0706675000 -3.5919109375 -5.6529858832
260 1 6.2116187500 -2.3151871875 -5.6698416160
261 1 6.2180418750 -2.2751165625 -2.3595176480
262 1 6.2108528125 -5.0506725000 -6.4675767445
263 1 2.8471375000 -3.2146800000 -6.4400601428
264 1 -6.7147054603 -1.5980681250 -4.0647132080
265 1 -6.1869434688 -2.0618096875 -5.6857570336
266 1 -5.6310515625 -2.0160550000 -4.8699390480
267 1 -5.0047700000 -1.3137575000 -6.4424282865
268 1 -5.5580886250 -1.4838628125 -4.0157157920
269 1 -5.0487778125 -1.9048193750 -5.6558120096
270 1 -4.4917531250 -1.8281853125 -4.8826838160
271 1 -3.9372143750 -1.2556134375 -6.4268458648
272 1 -4.4565737500 -1.2868690625 -4.0414514160
273 1 -3.8884093750 -1.8278090625 -5.6240135544
274 1 -3.3047515625 -1.7990125000 -4.8777102480
275 1 -2.8181931250 -1.2802443750 -6.4648891527
276 1 -3.3897303125 -1.2565137500 -4.0393143360
277 1 -2.7370709375 -1.8553559375 -5.6879070656
278 1 -6.6908462250 -1.0271356250 -4.8570259040
279 1 -6.1090583750 -0.9706309375 -5.6636984824
280 1 -5.5721563438 -0.9117209375 -4.8090905520
281 1 -5.6266494375 -0.3267596875 -4.0806830240
282 1 -5.0402450000 -0.7462246875 -5.6579542704
283 1 -4.4594628125 -0.7141090625 -4.8710788240
284 1 -3.8822818750 -0.1087496875 -6.4583740118
285 1 -4.4661815625 -0.1932581250 -4.0111048800
286 1 -3.8918896875 -0.6692009375 -5.6661684288
287 1 -3.3341259375 -0.7017062500 -4.8489309040
288 1 -3.3138353125 -0.1515615625 -4.0150811440
289 1 -2.7676009375 -0.7226015625 -5.6800801720
290 1 -6.6769690500 0.5920696875 -4.0228264400
291 1 -6.1080868438 0.1088840625 -5.6306682920
292 1 -5.5547010313 0.2621253125 -4.8310960000
293 1 -5.6060215313 0.8390240625 -4.0647391120
294 1 -5.0081696875 0.3501006250 -5.6867141864
295 1 -4.4680225000 0.3883571875 -4.8071088960
296 1 -4.4756281250 0.9733990625 -4.0266213760
297 1 -3.9509743750 0.4775150000 -5.6960888440
298 1 -3.4087712500 0.4041328125 -4.8394888960
299 1 -2.7483046875 0.9144218750 -6.4658518490
300 1 -3.3052756250 0.9640196875 -4.0401044080
301 1 -2.8391287500 0.3748525000 -5.6231302280
302 1 -6.1843124063 1.2372443750 -5.6594230272
303 1 -5.6054652188 1.3796550000 -4.8950659280
304 1 -5.0082906250 2.0085300000 -6.4728886188
305 1 -5.5559130938 1.9102346875 -4.0380838960
306 1 -5.0184896875 1.4433890625 -5.6528952192
307 1 -4.4663831250 1.5138956250 -4.8449028320
308 1 -4.4890656250 2.0925143750 -4.0503235360
309 1 -3.9135240625 1.5676456250 -5.6813196784
310 1 -3.3743443750 1.5382712500 -4.8315622720
311 1 -2.7888725000 2.0361978125 -6.4597359146
312 1 -2.8229096875 1.4776681250 -5.6486948856
313 1 -6.1655550000 -1.4823040625 -3.2610286560
314 1 -6.1268576875 -2.0442737500 -2.4310774480
315 1 -5.0157887500 -1.3083153125 -3.2011904160
316 1 -5.0621884375 -1.8998071875 -2.4504277360
317 1 -3.9138734375 -1.2645359375 -3.1856221120
318 1 -3.8947250000 -1.8229043750 -2.3841394000
319 1 -2.8046346875 -1.2970950000 -3.2630880240
320 1 -2.7373531250 -1.8492284375 -2.4155091440
321 1 -6.1559122500 -0.4161728125 -3.2022136240
322 1 -6.1196914688 -0.9705234375 -2.3581447360
323 1 -5.0802215625 -0.2170962500 -3.2664814480
324 1 -5.0009806250 -0.7463725000 -2.4051216400
325 1 -3.9054481250 -0.1013859375 -3.2446443760
326 1 -3.8884496875 -0.6547287500 -2.4540802000
327 1 -2.7417337500 -0.1922906250 -3.2380647600
328 1 -2.7833496875 -0.7606834375 -2.4286165680
329 1 -6.1316736875 0.7087743750 -3.2092724640
330 1 -6.1550992813 0.1490218750 -2.3993709520
331 1 -5.0430400000 0.8459443750 -3.2387382640
332 1 -4.9813618750 0.3071275000 -2.3904988320
333 1 -3.8921450000 1.0270684375 -3.2699525840
334 1 -3.9170715625 0.4724356250 -2.4482647520
335 1 -6.1329892188 1.8531253125 -3.2447998000
336 1 -6.2069666875 1.2771537500 -2.4478243840
337 1 -5.0141090625 2.0126015625 -3.1881088960
338 1 -5.0610328125 1.4159496875 -2.4575642880
339 1 -2.8024981250 2.0434406250 -3.2454603520
340 1 -3.9486900000 1.5565731250 -2.4123488560
341 1 -2.7553190625 0.9519393750 -3.2146216400
342 1 -2.8337537500 1.5095284375 -2.3953817360
343 1 -2.2470187500 -0.8494650000 -4.8043112640
344 1 -2.2459840625 0.3078934375 -4.8596292560
345 1 -3.3574400000 2.1140143750 -4.0650888160
346 1 -3.9052868750 2.1267396875 -3.2372617360
347 1 -2.8212434375 0.3728503125 -2.4493009120
348 1 -6.7055616716 -2.1970581250 -4.7816582160
349 1 -6.7150866956 -0.4705678125 -4.0711114960
350 1 -6.7150076025 1.7417956250 -4.0062090240
351 1 -6.1444635000 0.6592571875 -6.4589573698
352 1 -1.1169653125 -2.1299243750 -4.7989620880
353 1 -2.1897481250 -0.2555946875 -4.0631848720
354 1 -2.2078081250 0.8633056250 -4.0653996640
355 1 -2.2314178125 1.9893681250 -4.0533284000
356 1 1.7307231250 -2.0046600000 -3.1991051440
357 1 -1.6628100000 0.7529837500 -3.2227684480
358 1 -2.2021375000 -1.9768040625 -4.8389837680
359 1 -2.2235971875 -1.4151971875 -4.0261939600
360 1 -1.6392809375 -2.0091750000 -5.6767035856
361 1 -1.0596812500 -1.5421546875 -4.0495723200
362 1 -0.5229068750 -1.6699990625 -3.2338424080
363 1 0.0699959375 -1.7027462500 -4.0175808800
364 1 1.6979356250 -1.9705959375 -6.4318229298
365 1 1.1779581250 -1.9084743750 -4.0442620000
366 1 -1.7005828125 -0.9429900000 -5.6541036408
367 1 -1.1359525000 -0.9731168750 -4.8427398480
368 1 -0.5240356250 -0.5596315625 -6.4222379318
369 1 -0.5132453125 -0.5272471875 -3.2255142720
370 1 -0.5942196875 -1.1399031250 -5.6712805832
371 1 -0.0236365625 -1.1625587500 -4.8832666560
372 1 0.5573068750 -1.2152068750 -5.6598737568
373 1 0.0378803125 -0.6158809375 -4.0503364880
374 1 0.6174800000 -1.8091309375 -6.4052302720
375 1 1.1167637500 -1.3624415625 -4.8855073520
376 1 1.1199350000 -0.7908640625 -4.0884153680
377 1 1.7351440625 -1.4199137500 -5.6059429240
378 1 -1.6939312500 0.1560228125 -5.6544416880
379 1 -1.0722721875 -0.4219643750 -4.0416456960
380 1 -1.1082981250 0.1306259375 -4.8838624480
381 1 -0.5372581250 0.0307315625 -5.6694647128
382 1 0.0237037500 -0.0654406250 -4.8820232640
383 1 -0.0310271875 0.5049812500 -4.0695054480
384 1 0.6181653125 -0.0867928125 -5.6367142856
385 1 1.1843543750 -0.2193671875 -4.8542023680
386 1 1.7304409375 -0.2973181250 -5.6778019152
387 1 1.0657953125 0.3370259375 -4.0300148000
388 1 -2.2361478125 1.4325315625 -4.8717005200
389 1 -1.6920768750 1.8978721875 -6.4334570837
390 1 -1.6616409375 1.3268053125 -5.6535998080
391 1 -1.1101525000 0.6870996875 -4.0578875040
392 1 -1.0805900000 1.2227587500 -4.9001819680
393 1 -0.4734434375 1.1849053125 -5.6428781424
394 1 0.0798590625 1.0641156250 -4.8551608160
395 1 -0.0586950000 1.6117878125 -4.0219457040
396 1 0.6385634375 1.0024375000 -5.6820087248
397 1 1.1727040625 0.9060234375 -4.8047516320
398 1 1.6937834375 0.8215553125 -5.7115535320
399 1 1.0689262500 2.0202743750 -4.8208639200
400 1 -1.6476793750 -1.4636259375 -3.2642278000
401 1 -0.5640793750 -1.0907353125 -2.4442496320
402 1 0.6222368750 -1.8083784375 -3.2195045440
403 1 1.7039556250 -1.4369659375 -2.3975706240
404 1 -1.6814612500 -0.9189503125 -2.4274379360
405 1 -0.5667937500 0.0207743750 -2.3914831840
406 1 -0.5698037500 0.5869634375 -3.2009702320
407 1 0.5856868750 -0.6753284375 -3.2054127680
408 1 1.6410815625 -0.8815000000 -3.2111116480
409 1 -1.6689106250 1.3052918750 -2.3917551760
410 1 -1.6379371875 -0.3609446875 -3.2356427360
411 1 -0.6070928125 1.7168287500 -3.2089098080
412 1 -1.6833962500 0.2040618750 -2.4053806800
413 1 -0.5065534375 1.1471996875 -2.4141750880
414 1 0.5097784375 0.4385596875 -3.2103604320
415 1 1.6483243750 0.2541300000 -3.2708203680
416 1 1.7496028125 -0.2953159375 -2.4393667280
417 1 -1.7019534375 1.8609190625 -3.1978358480
418 1 0.5406846875 1.5659659375 -3.2786304240
419 1 1.1395000000 1.4717959375 -3.9933088320
420 1 1.6803996875 0.7941562500 -2.4325151200
421 1 2.2050803125 -0.9394559375 -4.0346386640
422 1 2.2153868750 0.7243215625 -4.8052697120
423 1 1.7446040625 1.3557631250 -3.2604328640
424 1 0.0170521875 2.1898825000 -4.7990786560
425 1 0.5489487500 2.1228696875 -5.7013810312
426 1 1.6339865625 1.9254728125 -5.6384563296
427 1 0.5464359375 2.1116628125 -2.4267385280
428 1 2.2107643750 1.8644934375 -4.8716357600
429 1 -1.6623665625 -2.0255553125 -2.4396905280
430 1 -0.5620906250 -2.2314446875 -2.4426565360
431 1 0.5412625000 -1.2463953125 -2.4057692400
432 1 0.6004815625 -0.1242162500 -2.3943973840
433 1 0.6210543750 1.0146118750 -2.4534455520
434 1 -1.1522790625 1.7816512500 -4.0558022320
435 1 1.6363112500 1.8822578125 -2.4213764000
436 1 1.6577306250 -0.8798068750 -6.4553418190
437 1 -1.6719609375 0.7449078125 -6.4134497407
438 1 -0.5901481250 0.6175068750 -6.4248353258
439 1 0.5726928125 -0.6505362500 -6.4469908875
440 1 6.7116415625 1.1895278125 -4.8162400560
441 1 2.3034025000 1.3226396875 -4.0546365520
442 1 6.7089271875 0.0961990625 -4.9163719680
443 1 2.2810425000 -0.3700956250 -4.8457447120
444 1 2.2477846875 -2.0569318750 -4.0917440320
445 1 3.3528443750 -2.1333375000 -4.0504012480
446 1 4.5240300000 -2.0049825000 -4.0059629360
447 1 5.0799796875 -1.9468518750 -6.4457713272
448 1 5.6134618750 -1.7397934375 -4.0384724560
449 1 2.3172565625 -1.4800734375 -4.8714155760
450 1 2.7708528125 -1.0022762500 -3.2339978320
451 1 2.8928115625 -1.5685056250 -5.6626053336
452 1 3.4293575000 -1.5548396875 -4.8115125760
453 1 3.3289659375 -0.9626490625 -4.0290304480
454 1 3.9553818750 -1.4631825000 -5.7034598272
455 1 4.4871575000 -1.4374900000 -4.8252287440
456 1 4.5054593750 -0.8633190625 -4.0376953360
457 1 5.0373693750 -1.3494475000 -5.6859474280
458 1 5.5992181250 -1.2149784375 -4.9137427120
459 1 6.1956953125 -0.6610712500 -6.4358302786
460 1 5.6637718750 -0.6910771875 -4.0200547120
461 1 6.2122906250 -1.2196546875 -5.6460643344
462 1 2.2541540625 0.1645153125 -3.9950314480
463 1 2.8285534375 -0.4335475000 -5.6903886688
464 1 3.3704609375 -0.4359259375 -4.8633205760
465 1 3.4071990625 0.1360143750 -4.0494946080
466 1 3.9588487500 -0.3942562500 -5.6461187328
467 1 4.5082140625 -0.3010134375 -4.8169265120
468 1 4.4533353125 0.2975331250 -4.0610218880
469 1 6.1409509375 -0.0548921875 -5.6756726064
470 1 5.5858075000 -0.1371162500 -4.8537749520
471 1 5.6012203125 0.4258746875 -4.0552582480
472 1 2.7467056250 0.6964656250 -5.6726418384
473 1 3.3127603125 0.6819396875 -4.8841344400
474 1 3.4024018750 1.2304718750 -4.0687930880
475 1 3.9120459375 0.7297234375 -5.6061048240
476 1 4.5167871875 0.8335281250 -4.9144032640
477 1 5.1174031250 0.9180634375 -5.6563313848
478 1 4.5018715625 1.3624550000 -4.0623688960
479 1 5.0364287500 -0.2040081250 -5.6966444848
480 1 5.6535728125 1.0060253125 -4.8196075760
481 1 6.1230925000 1.6269318750 -3.2613913120
482 1 6.1815590625 1.0974271875 -5.7110276808
483 1 2.7912643750 -2.1152506250 -3.2386216960
484 1 3.9222315625 -2.0153831250 -3.2599795440
485 1 5.0849918750 -1.8901725000 -3.1992346640
486 1 6.1901590625 -1.7380196875 -3.2183259120
487 1 2.8125896875 -0.4145334375 -2.4595848000
488 1 2.8592446875 -1.5449496875 -2.4238372800
489 1 3.9164265625 -0.9436215625 -3.2755219440
490 1 3.9555162500 -1.4871012500 -2.4007568160
491 1 5.0577943750 -0.7200753125 -3.2519363520
492 1 5.0298443750 -1.2980221875 -2.4731973520
493 1 6.2010837500 -0.5719537500 -3.1813220480
494 1 6.1624778125 -1.1643056250 -2.4316602880
495 1 2.8511150000 1.2570243750 -3.2175617440
496 1 2.8332296875 0.1650931250 -3.2541381920
497 1 3.9343521875 0.1685196875 -3.1766981840
498 1 3.9286815625 -0.4223809375 -2.4191875120
499 1 5.0275868750 0.3450212500 -3.2619223440
500 1 5.0673081250 -0.1928953125 -2.3931798960
501 1 6.1570221875 0.5664981250 -3.2739158960
502 1 6.1488521875 0.0181137500 -2.4498448960
503 1 3.9230781250 1.3345050000 -3.2170177600
504 1 3.9406543750 0.7592590625 -2.4420996000
505 1 5.5643209375 1.5982831250 -4.0622652800
506 1 5.0674693750 2.0612318750 -2.4494563360
507 1 6.2034890625 1.0892437500 -2.3874939680
508 1 2.7896518750 1.7862200000 -5.6262257560
509 1 3.3733096875 1.8273253125 -4.8309664800
510 1 3.8852112500 1.8784953125 -5.6987025576
511 1 4.4478528125 1.9370156250 -4.8787334560
512 1 5.0291053125 2.0583562500 -5.6268565184
513 1 5.6391946875 2.1264575000 -4.9081604000
514 1 6.2281603125 2.2237046875 -5.6504447008
515 1 3.9542800000 1.9020378125 -2.3883099440
516 1 5.0285409375 1.4656550000 -3.1972918640
517 1 2.7737687500 0.6871131250 -2.3962624720
518 1 5.0845484375 0.8972756250 -2.4379549600
519 1 2.8147396875 1.8027884375 -2.3977260480
520 1 5.0268209375 1.4886734375 -6.4406380610
521 1 6.2339787500 2.1841178125 -2.4280078240
522 1 3.9487034375 -2.0504684375 -6.4659898396
523 1 2.7643221875 -1.0009190625 -6.4642142369
524 1 3.9305493750 0.1886490625 -6.4514992197
525 1 6.2068618750 0.4948225000 -6.4718194052
526 1 3.9657959375 1.2683925000 -6.4324705298
527 1 5.1019096875 -0.7889156250 -6.4711685025
528 1 -3.9285875000 3.2438662500 -3.2097516880
529 1 -6.1848485625 2.9575131250 -6.4519969650
530 1 -6.1468016250 2.3640056250 -5.7082753808
531 1 -5.6277849063 2.4901031250 -4.8372741040
532 1 -5.5818353750 3.0455959375 -4.0388221600
533 1 -5.0633978125 2.5701503125 -5.6402657240
534 1 -4.4704278125 2.6261578125 -4.9042488960
535 1 -3.9241531250 3.2401440625 -6.4628740546
536 1 -4.4579040625 3.1709275000 -4.0718627120
537 1 -3.8837868750 2.6766828125 -5.6482804216
538 1 -3.3181890625 2.6699506250 -4.8543966480
539 1 -2.8326653125 3.1906000000 -6.4445336341
540 1 -2.7654778125 2.5973881250 -5.6766297592
541 1 -6.6982828063 3.4157453125 -4.9022542880
542 1 -6.7038439156 3.9883978125 -4.0731708640
543 1 -6.1242118438 3.5246428125 -5.6697276384
544 1 -5.5815222813 3.6203312500 -4.8271715440
545 1 -5.0437656250 4.2672931250 -6.4598956127
546 1 -5.6592313438 4.2034112500 -4.0447671280
547 1 -5.0377053125 3.6681284375 -5.6876311880
548 1 -4.4993453125 3.7647575000 -4.8176906800
549 1 -4.5025031250 4.3571900000 -4.0646743520
550 1 -3.9528959375 3.7988753125 -5.6438832176
551 1 -3.3472543750 3.7930837500 -4.9044949840
552 1 -2.8178706250 4.2969900000 -6.4707601777
553 1 -3.3791415625 4.3130612500 -4.0348458960
554 1 -2.7608418750 3.7462675000 -5.6516349896
555 1 -6.6933087813 5.1016678125 -4.0362188080
556 1 -6.2151326563 4.6665615625 -5.6333221568
557 1 -5.6058952188 4.7229318750 -4.9024097120
558 1 -5.6039588750 5.2934075000 -4.0828201040
559 1 -5.0266193750 4.7990418750 -5.6444544008
560 1 -4.4480140625 4.9063537500 -4.8624009840
561 1 -3.9153381250 6.0527875000 -5.6767230136
562 1 -4.5339334375 5.4697209375 -4.0307789680
563 1 -3.8867834375 4.9159212500 -5.6742724952
564 1 -3.3440293750 4.8949856250 -4.8367819280
565 1 -3.3840328125 5.4445390625 -4.0321518800
566 1 -2.7901893750 4.8878771875 -5.6898641128
567 1 -6.1875871250 5.7597425000 -5.7230808120
568 1 -5.6569563750 5.8508218750 -4.8643826400
569 1 -5.5701877500 6.4143906250 -4.0398842240
570 1 -5.0915359375 5.9638984375 -5.6561759608
571 1 -4.4995334375 5.9944150000 -4.8974879520
572 1 -4.4780065625 6.5510500000 -4.0635216240
573 1 -3.3902678125 6.0248106250 -4.8132222400
574 1 -3.3774484375 6.6123921875 -4.0523958560
575 1 -2.8506446875 5.9600821875 -5.6722558688
576 1 -6.1534290000 2.9194715625 -3.2847826240
577 1 -6.1852342188 2.3953553125 -2.3840228320
578 1 -5.0110050000 3.1715187500 -3.2385957920
579 1 -5.0738521875 2.6001428125 -2.4549350320
580 1 -3.9051390625 2.6679753125 -2.4070903440
581 1 -3.3802434375 3.2490531250 -4.0647909200
582 1 -2.8418162500 3.1399540625 -3.2191807440
583 1 -6.1758575313 4.0239400000 -3.1770737920
584 1 -6.1260944375 3.4497690625 -2.4194076960
585 1 -5.0606834375 4.2258384375 -3.2806509360
586 1 -5.0520296875 3.7110881250 -2.3802538000
587 1 -3.9413128125 4.3428387500 -3.2464706080
588 1 -3.9134971875 3.8073275000 -2.4044869920
589 1 -2.8134362500 4.3188393750 -3.2100754880
590 1 -2.7785121875 3.7165571875 -2.4721741440
591 1 -6.1423659063 5.1750231250 -3.1995714160
592 1 -6.1549810313 4.6159693750 -2.4152112480
593 1 -5.0841856250 5.3418900000 -3.2062287440
594 1 -4.9980781250 4.7677056250 -2.4266349120
595 1 -3.9447796875 5.4604893750 -3.2606012400
596 1 -3.9333712500 4.9113928125 -2.4320229440
597 1 -2.7853653125 5.4353209375 -3.2747059680
598 1 -2.8265512500 4.8945287500 -2.4484590320
599 1 -6.1501247188 6.2889381250 -3.2825419280
600 1 -6.2169104375 5.7655071875 -2.4115587840
601 1 -5.0298175000 6.4975553125 -3.2062028400
602 1 -5.0408631250 5.9150934375 -2.4389134080
603 1 -3.9406543750 6.5939425000 -3.2216416240
604 1 -3.9006106250 6.0064415625 -2.4434725120
605 1 -2.8229768750 6.5112481250 -3.2458748160
606 1 -2.8064487500 5.9743528125 -2.3976612880
607 1 -2.2842137500 3.1001790625 -4.0374881040
608 1 -2.2691503125 4.1797881250 -4.0243288720
609 1 -2.2931228125 5.9158459375 -4.8275212480
610 1 -2.2482684375 6.4927984375 -4.0574600880
611 1 -2.7625215625 2.5774468750 -2.3947341360
612 1 -4.0013650000 5.4814787500 -6.4629316910
613 1 -2.2656431250 4.7593743750 -4.8120954160
614 1 -6.6748334281 2.3130506250 -4.8098547200
615 1 -6.1607013750 4.1200315625 -6.4332990693
616 1 -3.9025725000 4.3472596875 -6.4689822437
617 1 -3.9244353125 6.6217178125 -6.4714294205
618 1 -2.7836990625 6.5342934375 -6.4605860838
619 1 -5.0736506250 5.3817725000 -6.4244437869
620 1 -0.5038256250 2.2946278125 -5.6868631344
621 1 -0.0379071875 6.6642475000 -4.8471435280
622 1 1.0885181250 6.4903125000 -4.8747053840
623 1 0.5251106250 6.6129700000 -5.6820022488
624 1 1.6781287500 6.4330821875 -5.6359099664
625 1 0.5355381250 6.6109140625 -2.4320877040
626 1 1.6573543750 6.4366162500 -2.3988917280
627 1 -2.2014253125 2.5341781250 -4.8750809920
628 1 -1.6160609375 2.4748650000 -5.6651283832
629 1 -1.0634303125 2.3364184375 -4.8592147920
630 1 -1.1518221875 2.8744021875 -4.0111307840
631 1 0.0494903125 2.7606671875 -4.0183968560
632 1 1.0875775000 3.1529750000 -4.8868543600
633 1 -2.1965340625 3.6367384375 -4.8660275440
634 1 -1.6371981250 3.5855415625 -5.6942781544