ITEM: TIMESTEP
146000
ITEM: NUMBER OF ATOMS
2304
ITEM: BOX BOUNDS pp pp pp
-6.7187500000 6.7187500000
-6.7187500000 6.7187500000
-6.4760000000 6.4760000000
ITEM: ATOMS id type x y z
1 1 -6.7143370041 -5.8918102813 -4.8675817840
2 1 -5.0516668750 -6.6866761656 -5.6441824088
3 1 -5.5542979063 -6.2739042500 -4.0918994560
4 1 -5.0477968750 -5.6382943750 -5.6135470432
5 1 -3.9845815625 -5.3919379688 -5.6656788432
6 1 -4.4313246875 -6.1519723750 -4.0497018400
7 1 -3.8952625000 -6.5821161563 -5.6796747744
8 1 -3.3607053125 -6.4455992188 -4.8435299200
9 1 -2.8543265625 -5.8702202500 -6.4085428755
10 1 -3.3128409375 -5.9334692188 -3.8837737680
11 1 -2.7716187500 -6.4522830313 -5.6681008672
12 1 -6.1384596250 -5.8543492188 -5.6587106672
13 1 -5.6222285000 -5.6751991250 -4.8009826000
14 1 -6.1680113750 -5.3133890625 -6.4577255051
15 1 -5.5828888750 -4.5517515625 -4.8643308320
16 1 -4.4764209375 -5.5856650625 -4.7898438800
17 1 -4.4423031250 -4.9768200000 -4.0911093840
18 1 -3.9226212500 -4.8956171875 -3.2540216240
19 1 -3.3727721875 -5.4440230625 -4.9174340320
20 1 -2.7920840625 -5.2709400000 -5.6514717944
21 1 -6.1306175000 -4.1236462500 -6.4258872873
22 1 -6.7032300906 -4.2404450000 -4.0434330720
23 1 -6.6958886469 -4.7968650000 -4.8573626560
24 1 -4.5014684375 -4.3702915625 -4.8026145520
25 1 -5.0283662500 -4.0171540625 -6.4407074838
26 1 -5.6229554688 -4.0103278125 -4.0169073760
27 1 -3.9417562500 -4.3351525000 -5.6377089992
28 1 -4.5229684375 -3.7895765625 -4.0355841600
29 1 -3.3831056250 -4.3363618750 -4.8103468960
30 1 -3.3127871875 -4.9152896875 -4.0407390560
31 1 -3.8991593750 -3.8477206250 -3.2958177280
32 1 -2.8570543750 -4.1135009375 -5.6470642288
33 1 -6.1834967500 -3.5393031250 -5.6752348288
34 1 -6.6834191844 -3.1259790625 -4.0420990160
35 1 -5.5963599688 -3.4794659375 -4.9126288400
36 1 -6.1445400938 -4.7165087500 -5.6871247648
37 1 -5.5693277500 -2.9527159375 -4.0289009280
38 1 -5.0100643750 -3.4320046875 -5.6673729648
39 1 -4.4503387500 -3.2479109375 -4.8757544960
40 1 -3.9161712500 -2.7239156250 -6.4508367249
41 1 -4.4876815625 -2.7089596875 -4.0196013920
42 1 -3.8537943750 -3.2766403125 -5.6383177432
43 1 -3.3361415625 -3.1246487500 -4.7793657120
44 1 -3.3804987500 -2.5239925000 -4.0576414160
45 1 -2.7899609375 -3.0343218750 -5.6803884296
46 1 -6.0643356875 -6.3888593750 -3.2537884880
47 1 -4.9875296875 -6.1925509375 -3.2383497040
48 1 -3.8787075000 -6.0287410938 -3.1721908880
49 1 -4.0435184375 -6.5924305125 -2.2560829760
50 1 -2.3779671875 -5.7613550000 -3.9232644160
51 1 -2.8436571875 -6.2817893750 -2.5641462960
52 1 -6.1783501875 -5.2626759375 -3.2538143920
53 1 -6.1394432500 -5.8321692813 -2.4613462720
54 1 -5.6205340313 -5.1078893750 -4.0218420880
55 1 -5.0725353125 -5.6373712188 -2.4067794960
56 1 -5.0017868750 -5.1425312500 -3.2986412640
57 1 -3.9300118750 -5.4156376875 -2.4207028960
58 1 -2.8179243750 -4.1268846875 -2.4421384560
59 1 -6.1701613750 -4.1037856250 -3.1738357920
60 1 -6.1322273125 -4.7071831250 -2.4565281280
61 1 -5.0471921875 -4.0392050000 -3.2222892240
62 1 -5.0430400000 -4.5972778125 -2.4182549680
63 1 -3.9654331250 -4.3494500000 -2.3948118480
64 1 -3.3471468750 -3.7448162500 -4.0790122160
65 1 -6.1307155938 -2.9693112500 -3.2153858080
66 1 -6.1733608438 -3.5211893750 -2.4141103280
67 1 -5.0279765625 -2.8460221875 -3.1634741920
68 1 -4.9939528125 -3.4552246875 -2.4572016320
69 1 -3.9082431250 -2.7396375000 -3.2269130880
70 1 -3.8950071875 -3.2941493750 -2.4260909280
71 1 -2.7906328125 -2.5152178125 -3.2911032000
72 1 -2.7916943750 -3.5791856250 -3.2621684320
73 1 -2.2513456250 -6.2826211563 -4.8025886480
74 1 -2.8044868750 -4.7362753125 -3.1700926640
75 1 -6.1556851563 -2.3883006250 -5.6789326248
76 1 -5.5936429063 -2.4028131250 -4.8509125600
77 1 -5.0578750000 -2.2504856250 -5.7073959400
78 1 -6.1912797500 -2.3819984375 -2.4403640320
79 1 -2.7947446875 -5.3741534375 -2.5831727840
80 1 -2.8049840625 -3.0394550000 -2.3956278240
81 1 -3.9381012500 -5.9863955000 -6.4019111925
82 1 -5.0187853125 -4.5949396875 -5.6759458936
83 1 -2.2510231250 -4.6340293750 -4.0641044640
84 1 -2.2501765625 -4.1151940625 -4.9220449440
85 1 -2.2588571875 -3.0324943750 -4.8061245440
86 1 -6.6949945156 -6.4304269375 -3.9952645840
87 1 -6.6826165625 -2.5655546875 -4.8354867280
88 1 -5.0611403125 -2.2530118750 -2.4317250480
89 1 -4.4591000000 -6.7101272772 -4.8805078800
90 1 -5.0092581250 -2.8558046875 -6.4180492550
91 1 -6.1572210625 -2.9678196875 -6.4551537560
92 1 -2.8020546875 -4.7069815625 -6.4156857740
93 1 -1.6947643750 -4.6343921875 -3.1948180320
94 1 -1.1016196875 -5.1274543750 -4.8299173680
95 1 -2.2144462500 -5.2235728125 -4.8452654880
96 1 -1.7146921875 -6.2684298125 -5.6882619504
97 1 -1.1934381250 -6.2734016875 -4.7916442080
98 1 -1.1666706250 -5.6974059375 -4.0399230800
99 1 -0.6371256250 -6.3374031563 -5.6061916024
100 1 -0.0028487500 -6.3851291250 -4.9079013600
101 1 -0.0480256250 -5.8868666250 -3.9870141600
102 1 1.1194512500 -6.6019835000 -4.8335698320
103 1 0.5865468750 -6.5088804375 -5.6838932408
104 1 1.1313703125 -6.0308198750 -4.0383688400
105 1 1.6887309375 -6.6330530156 -5.7135015128
106 1 -1.6593431250 -5.1980012500 -5.6539041800
107 1 -0.5761462500 -5.2124196875 -5.6919998976
108 1 -0.5486665625 -4.0909662500 -5.6785103896
109 1 -1.1695462500 -4.5825503125 -4.0005749040
110 1 -1.7235340625 -4.6184150000 -6.4463445827
111 1 -0.0380953125 -5.3321612500 -4.8222497840
112 1 0.0176837500 -4.7630696875 -4.0409851440
113 1 0.5060696875 -5.3423871875 -5.6987271664
114 1 1.0482862500 -5.4839203438 -4.8444883680
115 1 1.1274600000 -4.8969609375 -4.0684692880
116 1 -1.6481362500 -3.4496750000 -6.4209339244
117 1 -2.1951500000 -3.5953375000 -4.0144853520
118 1 -1.6697706250 -4.0487859375 -5.6775765504
119 1 -1.1190212500 -4.0483962500 -4.8596810640
120 1 -1.1018884375 -3.4805409375 -4.0288232160
121 1 -0.0265659375 -4.1900812500 -4.8134165200
122 1 1.0900365625 -3.8068571875 -4.0176197360
123 1 -0.0143109375 -3.5924484375 -4.0745178720
124 1 0.5288462500 -4.2684487500 -5.6026673632
125 1 1.6527856250 -3.8405315625 -6.4433687312
126 1 1.1248262500 -3.2371340625 -4.8036636640
127 1 1.1459903125 -4.3421668750 -4.8813368080
128 1 -2.2117184375 -2.4249446875 -4.0662156400
129 1 -1.7277937500 -2.8692153125 -5.6772682928
130 1 -1.1633246875 -2.9492221875 -4.8890562000
131 1 -0.5748831250 -2.4354528125 -6.4420789710
132 1 -1.0881418750 -2.4066831250 -4.0512431280
133 1 -0.5567156250 -2.9736246875 -5.6003981728
134 1 0.0290115625 -3.0386890625 -4.8757415440
135 1 0.6012475000 -3.1600565625 -5.6686888880
136 1 1.1811965625 -2.6400656250 -4.0542738960
137 1 1.7174065625 -2.7528868750 -3.2196340640
138 1 1.6749037500 -3.2490262500 -5.6693507352
139 1 -1.7840565625 -5.7398146875 -3.2639558080
140 1 -1.7276190625 -6.2789352500 -2.3682861520
141 1 -0.6409553125 -5.7846838438 -3.2161240720
142 1 -0.5952275000 -6.3462006875 -2.4327741600
143 1 0.5582743750 -5.9226587500 -3.2623109040
144 1 0.5507628125 -6.4872836875 -2.4689490960
145 1 1.6912303125 -6.1022684063 -3.2291667360
146 1 1.6369965625 -6.6673535781 -2.4120250560
147 1 -1.6444006250 -5.2041690625 -2.3876493920
148 1 -0.5473093750 -4.6479775000 -3.2734625760
149 1 -0.5648184375 -5.2054053125 -2.4485496960
150 1 0.5673043750 -4.8275831250 -3.2165644400
151 1 0.5149787500 -5.3969125313 -2.4169209120
152 1 1.6533768750 -4.9526862500 -3.1959578080
153 1 1.6835575000 -5.5373088750 -2.4368928960
154 1 -1.6642209375 -3.4322196875 -3.1992864720
155 1 -1.6617753125 -4.0535025000 -2.4759043200
156 1 -0.5484112500 -3.5652778125 -3.2031979760
157 1 -0.5546731250 -4.1276775000 -2.3887114560
158 1 0.5446353125 -3.7063581250 -3.2231570080
159 1 0.5878771875 -4.2637859375 -2.4210007920
160 1 1.7167212500 -3.8058359375 -3.2941728240
161 1 1.6979087500 -4.3481600000 -2.4575254320
162 1 -1.6840009375 -2.8772509375 -2.4326057840
163 1 0.0099706250 -2.5050456250 -4.0101593840
164 1 -0.5194937500 -2.9742428125 -2.4532253680
165 1 0.6033975000 -2.6081381250 -3.2786822320
166 1 0.5683525000 -3.1382609375 -2.4124913280
167 1 1.6263943750 -5.5503566875 -5.6088402864
168 1 2.1974343750 -3.3508287500 -4.8015654400
169 1 -1.6758040625 -2.3101078125 -3.2412250480
170 1 -0.5675059375 -2.3940250000 -3.2056329520
171 1 1.6383671875 -3.2859793750 -2.3953687840
172 1 1.7020609375 -4.4045840625 -5.6576498984
173 1 2.2366046875 -5.6060470625 -4.8929418000
174 1 2.1850181250 -5.0667706250 -4.0321000720
175 1 -0.5834025000 -5.8005333750 -6.4668609004
176 1 0.5312515625 -5.9385526250 -6.4404800466
177 1 1.6840143750 -5.0015584375 -6.4263083568
178 1 -0.5369490625 -3.5084103125 -6.4634176760
179 1 0.5354440625 -2.6027228125 -6.4709077399
180 1 0.5393409375 -3.7266756250 -6.4619887854
181 1 2.2824803125 -3.9009196875 -4.0440677200
182 1 2.2832731250 -2.6882928125 -4.0685210960
183 1 6.1588093750 -5.9893436875 -5.6734733568
184 1 6.6641937500 -5.3561203125 -4.0232797600
185 1 6.1813709375 -4.8236996875 -5.6760559856
186 1 6.7110906250 -3.6954603125 -4.8573497040
187 1 2.2486581250 -6.1608720313 -4.0789474560
188 1 3.3257006250 -6.3792784375 -4.0326570080
189 1 4.4757087500 -6.5255725000 -4.0509711360
190 1 5.6060981250 -6.5575792813 -4.0423451040
191 1 2.8007646875 -4.5568712500 -5.6924713504
192 1 2.8112459375 -5.7202711875 -5.6547991632
193 1 3.3733365625 -5.2649871875 -4.0276575360
194 1 3.9215193750 -5.8955485938 -5.6971742216
195 1 4.4480275000 -5.9733208125 -4.8268606960
196 1 5.0453109375 -4.8961950000 -5.6593919424
197 1 4.5264084375 -5.3773569375 -4.0667725760
198 1 5.0072559375 -6.0260025313 -5.6548147056
199 1 5.5945553125 -6.0187933125 -4.8900146480
200 1 5.5904568750 -5.4836233750 -4.0487433920
201 1 2.2527431250 -4.5050965625 -4.8251769360
202 1 2.8375968750 -4.0650184375 -3.2373264960
203 1 3.3171812500 -4.6927646875 -4.8191024480
204 1 3.3644006250 -5.8100014375 -4.8386858720
205 1 3.3949171875 -4.1041350000 -4.0871978800
206 1 3.8801050000 -4.8016218750 -5.6332457400
207 1 4.4724300000 -4.8443262500 -4.8911932800
208 1 4.4513196875 -4.3002015625 -4.0446376080
209 1 5.0152243750 -4.3336475000 -6.4553630603
210 1 5.6170093750 -4.9147253125 -4.8736303680
211 1 5.6030881250 -4.3934578125 -4.0127368320
212 1 6.1164946875 -5.4174302500 -6.4298626446
213 1 2.8055887500 -2.3851293750 -5.6495315848
214 1 2.7432118750 -3.4788746875 -5.6064312144
215 1 3.3688350000 -3.5265375000 -4.8969698720
216 1 3.9059587500 -3.1320931250 -6.4308444062
217 1 3.3301887500 -3.0249290625 -4.0321777840
218 1 4.5132128125 -3.7289868750 -4.8530884960
219 1 4.4547193750 -2.6071034375 -4.8292050080
220 1 5.0240259375 -2.6724768750 -5.6170725776
221 1 5.5924456250 -3.8328587500 -4.8079119200
222 1 6.1349040625 -3.7009696875 -5.6486145832
223 1 5.6243731250 -3.2259003125 -4.0647909200
224 1 2.7718606250 -6.2739606875 -3.1975768080
225 1 3.9190065625 -6.4310464063 -3.2488408240
226 1 5.0416425000 -6.5616441250 -3.2281953360
227 1 6.1642650000 -6.5670513750 -3.2306173600
228 1 2.8158550000 -5.6675061563 -2.4608800000
229 1 3.9588621875 -5.3453703125 -3.2572596240
230 1 3.8728621875 -5.8859595938 -2.4109759440
231 1 5.0435371875 -5.4774273438 -3.1866453200
232 1 5.0295218750 -6.0365684375 -2.3838803600
233 1 6.1281315625 -5.4025724063 -3.1788741200
234 1 6.2132715625 -5.9897535313 -2.4497153760
235 1 2.7547412500 -4.6068856250 -2.3973633920
236 1 2.7922453125 -5.1310153125 -3.2918803200
237 1 3.8945637500 -4.2170637500 -3.1918779280
238 1 3.9059050000 -4.8014471875 -2.4245625920
239 1 5.0248187500 -4.3119862500 -3.2570782960
240 1 5.0429728125 -4.8677075000 -2.4441201120
241 1 6.1803228125 -4.2677768750 -3.2355002640
242 1 6.1480190625 -4.8140650000 -2.4074400480
243 1 2.7987893750 -2.9281790625 -3.1658573600
244 1 2.7961825000 -3.5008450000 -2.4206769920
245 1 6.1707821875 -3.1607821875 -3.2515736960
246 1 3.9678787500 -3.6292806250 -2.4490936800
247 1 4.4744456250 -3.1844456250 -4.0370606880
248 1 5.0488046875 -3.7723362500 -2.4188507600
249 1 5.0513846875 -3.2154728125 -3.2687998560
250 1 6.1177309375 -3.7060356250 -2.4115587840
251 1 3.4063121875 -2.4497906250 -4.8631133440
252 1 3.9261284375 -3.6937537500 -5.6518253840
253 1 3.9287084375 -2.5209421875 -5.7216703392
254 1 5.6121584375 -2.6598321875 -4.8307592480
255 1 6.1583525000 -2.6125725000 -5.6219749096
256 1 3.9073159375 -3.0672975000 -3.2620389120
257 1 5.0581975000 -2.6970137500 -2.3957832480
258 1 6.1869475000 -2.6100462500 -2.4230601600
259 1 3.8921584375 -2.5360459375 -2.4088388640
260 1 6.2201112500 -6.5383112500 -6.4748126643
261 1 5.0122950000 -5.4525249688 -6.4673963620
262 1 2.8155325000 -2.9338362500 -6.4638046429
263 1 3.9209953125 -4.2516921875 -6.4747369572
264 1 5.0533196875 -3.7492506250 -5.6850692824
265 1 2.8288087500 -2.3120293750 -2.4568519280
266 1 3.9333578125 -6.4719313438 -6.4659863166
267 1 2.8391825000 -6.2887620938 -6.4622887538
268 1 6.1617790625 -4.2537346875 -6.4698487455
269 1 2.7589203125 -5.1535634375 -6.4388601400
270 1 -5.0343459375 -1.6659409375 -6.4651131057
271 1 -5.5598932813 -1.8524265625 -4.0011966000
272 1 -4.4960396875 -2.1775737500 -4.8907399600
273 1 -4.4174975000 -1.6395765625 -4.0041755600
274 1 -3.9081087500 -2.1546896875 -5.6594955584
275 1 -3.3523875000 -1.9722084375 -4.8718041360
276 1 -2.7703287500 -1.4183146875 -6.4336829666
277 1 -3.3349456250 -1.4104537500 -4.0489765280
278 1 -2.7426340625 -1.9738209375 -5.6042203080
279 1 -6.6827661219 -1.4163393750 -4.7928616960
280 1 -6.1345721563 -1.3053321875 -5.6313961944
281 1 -5.5646541875 -1.3079928125 -4.8167451840
282 1 -5.6002192188 -0.7180193750 -4.0565145920
283 1 -5.0343056250 -1.1037428125 -5.6843245424
284 1 -4.4859346875 -1.1113215625 -4.8499670640
285 1 -3.9175284375 -0.3872015625 -6.4470424365
286 1 -4.4503253125 -0.5594031250 -3.9955624800
287 1 -3.9397675000 -0.9799700000 -5.6974591656
288 1 -3.3842612500 -0.8635071875 -4.8803395040
289 1 -2.7487615625 -0.3039159375 -6.4288509639
290 1 -3.3062162500 -0.3340696875 -3.9910292800
291 1 -2.7904043750 -0.8491425000 -5.6206512152
292 1 -6.7113335481 -0.2414987500 -4.8740707360
293 1 -6.1384273750 0.2835984375 -6.4467095701
294 1 -6.6833370813 0.3090087500 -4.0464249840
295 1 -6.1095045000 -0.2529609375 -5.6059571712
296 1 -5.5369433750 -0.1372909375 -4.8123026480
297 1 -5.6094185313 0.4643596875 -4.1059523760
298 1 -4.9830281250 -0.0032921875 -5.6189868832
299 1 -4.4028775000 -0.0086268750 -4.8217835120
300 1 -4.4977596875 0.5622115625 -4.0530434560
301 1 -3.8842975000 0.1959590625 -5.6893045864
302 1 -3.3375525000 0.2120706250 -4.8376108560
303 1 -3.3465153125 0.7567059375 -3.9734016080
304 1 -2.8043659375 0.3070871875 -5.7155893752
305 1 -6.6682288969 1.3656396875 -4.0009116560
306 1 -6.1218266875 0.8606987500 -5.6562860528
307 1 -5.5915990625 1.0569534375 -4.8592666000
308 1 -5.0095806250 1.5980681250 -6.4468879191
309 1 -5.5511844375 1.6052034375 -4.0329678560
310 1 -4.9806228125 1.0519681250 -5.6031090264
311 1 -4.4204940625 1.1532734375 -4.8075751680
312 1 -4.4714759375 1.7546150000 -4.0980128000
313 1 -3.8688578125 1.2938565625 -5.6263293720
314 1 -3.2909243750 1.2941790625 -4.8217576080
315 1 -2.7776118750 1.4690143750 -5.6972402768
316 1 -6.1644060938 -1.8461378125 -3.2756514640
317 1 -4.9963715625 -1.6855059375 -3.2128342640
318 1 -3.8701478125 -1.5758156250 -3.1653651840
319 1 -3.8823087500 -2.1702368750 -2.4311810640
320 1 -2.7890606250 -1.4243884375 -3.2063712160
321 1 -2.7562865625 -1.9876750000 -2.4012489920
322 1 -6.1791819688 -0.7601056250 -3.2528300400
323 1 -6.1304790938 -1.3061115625 -2.4147708800
324 1 -5.0533868750 -0.5480618750 -3.2568969680
325 1 -5.0590978125 -1.1035681250 -2.4518006480
326 1 -3.8839750000 -0.4099109375 -3.2152692400
327 1 -3.9466206250 -0.9786934375 -2.4391983520
328 1 -2.7438300000 -0.2794731250 -3.1762966720
329 1 -2.7640534375 -0.8525018750 -2.4105226240
330 1 -6.1250557188 0.3059584375 -3.2073296640
331 1 -6.1004556875 -0.2301171875 -2.3598932560
332 1 -5.0682353125 0.5346243750 -3.2501489760
333 1 -4.9722512500 0.0104543750 -2.4056267680
334 1 -3.9543203125 0.7584931250 -3.2512369440
335 1 -3.9034459375 0.1902078125 -2.4734304880
336 1 -6.0912214375 1.4384978125 -3.2067079680
337 1 -6.1527047188 0.8801831250 -2.4048755520
338 1 -4.9903381250 1.6031206250 -3.2081456400
339 1 -4.9950546875 1.0748387500 -2.3466822160
340 1 -2.8412787500 2.0644031250 -3.2296330080
341 1 -3.8522893750 1.3085168750 -2.4034249280
342 1 -2.7643087500 0.8847115625 -3.2405385920
343 1 -2.7833631250 1.4798987500 -2.4809685520
344 1 -2.2700103125 0.4168715625 -4.8428952720
345 1 -6.7176952987 1.9331859375 -4.8090516960
346 1 -6.1969463438 2.0322875000 -5.6973270552
347 1 -5.6392497813 2.1423809375 -4.8772439760
348 1 -5.0548784375 2.1586000000 -5.6560697544
349 1 -3.3754059375 1.8798121875 -4.0545199840
350 1 -6.1865080938 2.0221556250 -2.4584709280
351 1 -5.0645534375 2.1621743750 -2.4052511600
352 1 -3.9426162500 1.8546840625 -3.2288170320
353 1 -2.8131137500 0.3247843750 -2.4433170880
354 1 -2.2636275000 -1.2596850000 -4.0705027520
355 1 -2.2540465625 2.0529409375 -3.9886461120
356 1 -3.8584034375 -1.5692581250 -6.4138827261
357 1 -2.7930784375 0.9013068750 -6.4653665116
358 1 -6.1018935000 1.4386053125 -6.4308652590
359 1 -2.8331759375 2.0541637500 -6.4672266001
360 1 1.6873468750 -2.1996112500 -5.6297538808
361 1 -2.1890225000 -1.8449956250 -4.8096474880
362 1 -2.1715940625 0.9721225000 -4.0040978480
363 1 -2.2313909375 1.5066528125 -4.8480501680
364 1 1.7783590625 -1.6283831250 -3.3056742000
365 1 -1.6190440625 0.9709534375 -3.2017862080
366 1 -1.6193262500 -1.7821887500 -5.6190412816
367 1 -1.1113618750 -1.2604912500 -4.0307012560
368 1 -0.5099128125 -1.8450628125 -5.6846431616
369 1 -0.5141993750 -1.2933459375 -3.3010503360
370 1 -1.0463378125 -1.8167365625 -4.8275342000
371 1 0.0379878125 -1.9336831250 -4.8111240160
372 1 0.1202253125 -1.3659756250 -4.0222306480
373 1 0.5650065625 -2.0296134375 -5.7053637712
374 1 1.0918103125 -2.0968815625 -4.8682552880
375 1 1.2670890625 -1.5437134375 -4.0499867840
376 1 -2.2104015625 -0.6862800000 -4.8627506880
377 1 -1.6410815625 -0.1559825000 -6.4703281638
378 1 -2.2203184375 -0.1420209375 -4.0361151920
379 1 -1.6225109375 -0.7016390625 -5.6354644176
380 1 -1.0899425000 -0.6773440625 -4.7918125840
381 1 -0.5279728125 -0.1943062500 -3.2300474720
382 1 -0.5530606250 -0.7352731250 -5.6885145144
383 1 -0.0181003125 -0.8240546875 -4.8531014480
384 1 0.5617143750 -0.9103637500 -5.6454504096
385 1 0.0161787500 -0.2527459375 -4.0495593680
386 1 1.1396343750 -0.9866887500 -4.9209181200
387 1 1.6619500000 -0.5230681250 -6.4747981995
388 1 1.1104884375 -0.4630293750 -4.0257665440
389 1 1.7616293750 -1.0608503125 -5.6385314512
390 1 -1.6006346875 0.9722434375 -6.4517139638
391 1 -1.7154715625 0.4064440625 -5.6585591288
392 1 -1.0924284375 -0.0751962500 -4.0594546960
393 1 -0.5402815625 0.9128631250 -6.4383512559
394 1 -1.1450228125 0.4666171875 -4.8780599520
395 1 -0.5529128125 0.3737775000 -5.6033551144
396 1 0.0540859375 0.2845928125 -4.8970475840
397 1 -0.0133837500 0.8270915625 -4.0567606800
398 1 0.6311593750 0.2372525000 -5.6749887408
399 1 1.1479118750 0.0910525000 -4.7963846400
400 1 1.6901150000 0.0476225000 -5.6811435312
401 1 1.1457081250 0.7096612500 -4.0645189280
402 1 2.2276553125 -0.0466550000 -4.8382325520
403 1 -1.7038884375 2.1302468750 -6.4393416954
404 1 -1.6772015625 1.5509831250 -5.6815230248
405 1 -1.0761421875 1.0182668750 -4.0550251120
406 1 -1.1149496875 1.5836093750 -4.8818160320
407 1 -0.5238071875 1.5115843750 -5.6539559880
408 1 0.0155203125 1.4164603125 -4.8149319040
409 1 0.0355556250 2.0103306250 -4.0791546880
410 1 0.5656784375 1.3513421875 -5.6591549208
411 1 1.1299459375 1.2587981250 -4.8484128240
412 1 1.6979087500 1.1363421875 -5.6069454088
413 1 -1.6859493750 -1.2303509375 -3.2652898640
414 1 -0.5507493750 -0.7688937500 -2.4338880320
415 1 0.6418959375 -1.5071768750 -3.2233383360
416 1 0.5776646875 -2.0636237500 -2.4405842160
417 1 1.6787334375 -1.0638603125 -2.4360769200
418 1 -1.6275634375 -0.6953100000 -2.3957962000
419 1 -0.5459118750 0.3731056250 -2.4390947360
420 1 -0.5273681250 0.9574756250 -3.1904273040
421 1 0.5909409375 -0.3109034375 -3.2114484000
422 1 1.7132140625 -0.4824196875 -3.2455898720
423 1 -1.6970890625 1.5705615625 -2.4644547520
424 1 -1.6363381250 -0.1471809375 -3.2436470720
425 1 -0.5277578125 2.0397453125 -3.2634636320
426 1 -1.6864868750 0.4044553125 -2.4088000080
427 1 -0.5576831250 1.5247262500 -2.3842818720
428 1 0.5820721875 0.8002434375 -3.2742008400
429 1 1.6717728125 0.5638643750 -3.2066820640
430 1 1.6941865625 0.0065306250 -2.3573028560
431 1 -1.6665053125 2.1482665625 -3.2266151920
432 1 0.5466106250 1.8553828125 -3.2122125680
433 1 1.1216953125 1.8422946875 -4.0494946080
434 1 1.7413790625 1.1412200000 -2.4642086640
435 1 1.6598671875 1.7409356250 -3.2028741760
436 1 2.2105896875 1.5877884375 -3.9910422320
437 1 -1.6543175000 -1.7586059375 -2.4121934320
438 1 -0.5286446875 -1.8260890625 -2.4397423360
439 1 1.6912303125 -2.1645125000 -2.4317380000
440 1 0.5774362500 -0.9074746875 -2.4870818960
441 1 0.5703815625 0.2573684375 -2.4182549680
442 1 0.5923787500 1.3137306250 -2.3678457840
443 1 -1.1176909375 2.1050112500 -4.0260773920
444 1 0.5530203125 -0.3470637500 -6.4407920603
445 1 1.6790290625 -1.6385821875 -6.4389309874
446 1 1.6558628125 1.6832484375 -6.4314142942
447 1 6.7008781250 -2.0079925000 -4.0476036160
448 1 6.7060784375 0.8611287500 -4.9032774960
449 1 2.2766350000 -0.6272893750 -4.0731190560
450 1 2.2417512500 0.5276100000 -4.0453111120
451 1 2.2517890625 2.1612875000 -4.7925378960
452 1 6.7142215625 -0.8093943750 -4.0820429840
453 1 2.2680484375 -2.1841043750 -4.8018762880
454 1 3.3446878125 -1.8894737500 -4.0013261200
455 1 3.9519956250 -1.9298803125 -6.4616640788
456 1 4.4787859375 -2.0238756250 -4.0605426640
457 1 5.0461978125 -2.1214184375 -6.4636537132
458 1 5.5505206250 -2.0700065625 -4.0736759920
459 1 2.2480265625 -1.2700990625 -4.6630826560
460 1 2.7990446875 -0.7310537500 -3.2034052080
461 1 2.7694553125 -1.2261181250 -5.6676501376
462 1 3.3305784375 -1.3471900000 -4.8442163760
463 1 3.9281575000 -0.8521121875 -6.4491076329
464 1 3.3844225000 -0.7515593750 -4.0657234640
465 1 3.8855068750 -1.3974865625 -5.6210190520
466 1 4.4916456250 -1.4659909375 -4.9014901200
467 1 4.4523275000 -0.9578653125 -4.0236035600
468 1 5.0779640625 -1.5763800000 -5.6419857496
469 1 5.6363459375 -1.4916162500 -4.8440609520
470 1 5.6038675000 -0.9384346875 -4.0221788400
471 1 6.2100062500 -1.5312703125 -5.6465474440
472 1 2.7916809375 0.3709556250 -6.4252712902
473 1 2.8052259375 -0.1790681250 -5.5860616040
474 1 3.4177878125 -0.2053250000 -4.8746665280
475 1 3.3140771875 0.3236556250 -4.0131383440
476 1 3.9794484375 -0.2654175000 -5.6694802552
477 1 4.5235328125 -0.3827806250 -4.8258892960
478 1 4.5249706250 0.1777512500 -4.0281238080
479 1 6.1716018750 -0.4316796875 -5.6601470440
480 1 5.5865062500 -0.3993625000 -4.8682682400
481 1 5.6930387500 0.1495862500 -4.0174384080
482 1 6.2220596875 0.1635881250 -6.4208477936
483 1 2.3090328125 1.0768812500 -4.8869191200
484 1 2.8655603125 0.9683196875 -5.6791204288
485 1 3.3927537500 0.8939431250 -4.8031196800
486 1 3.4185134375 1.4767812500 -4.0288879760
487 1 3.9399556250 0.8366590625 -5.6964294816
488 1 4.4622578125 0.7485896875 -4.7979647840
489 1 5.0069468750 0.7141225000 -5.6552783872
490 1 4.5462018750 1.3550106250 -4.0699199120
491 1 5.0524731250 -0.4055571875 -5.7163859232
492 1 5.5818165625 0.6776262500 -4.8803265520
493 1 6.1838031250 1.3431990625 -3.2388418800
494 1 6.1519428125 0.7491809375 -5.6798172464
495 1 2.7110962500 -1.7750400000 -3.4127613360
496 1 3.9310331250 -1.9810503125 -3.2297107200
497 1 5.0269150000 -2.1399353125 -3.1955174400
498 1 6.1169650000 -2.0656796875 -3.2681393040
499 1 2.8548506250 -0.1735856250 -2.4308702160
500 1 2.7942206250 -1.3104787500 -2.3914702320
501 1 3.8907743750 -0.8248609375 -3.2046226960
502 1 3.8894171875 -1.4155600000 -2.4641309520
503 1 5.0391028125 -0.9813003125 -3.2453826400
504 1 5.0494362500 -1.5343475000 -2.4528497600
505 1 6.1808871875 -0.9972640625 -3.2287134160
506 1 6.1860606250 -1.5371425000 -2.3780778640
507 1 2.8393437500 1.5870225000 -3.2927999120
508 1 2.7839678125 0.4117518750 -3.1901423600
509 1 3.9377653125 0.2925209375 -3.2911550080
510 1 3.9917303125 -0.2483653125 -2.4379161040
511 1 5.0955671875 0.1576621875 -3.2632952560
512 1 5.0367243750 -0.4049793750 -2.4516452240
513 1 6.2225434375 0.1582265625 -3.1663365840
514 1 6.1548453125 -0.4373368750 -2.4292123600
515 1 3.9880215625 1.3539356250 -3.2389066400
516 1 3.9104334375 0.8096631250 -2.3964178960
517 1 5.6222634375 1.2194800000 -4.0385372160
518 1 5.1001493750 1.8396340625 -2.4142398480
519 1 6.1635259375 0.7703181250 -2.4683533040
520 1 3.3075734375 2.0313200000 -4.8290366320
521 1 3.8726337500 1.9185928125 -5.6133346304
522 1 4.4860825000 1.8897425000 -4.9105435680
523 1 5.0976365625 1.8203915625 -5.6256714104
524 1 5.6575503125 1.8055700000 -4.8286610240
525 1 6.1882509375 1.8917715625 -5.6955448600
526 1 3.9067112500 1.9072650000 -2.4181384000
527 1 5.0620540625 1.2652481250 -3.1979653680
528 1 6.1801346875 1.8953593750 -2.4060671360
529 1 2.8441006250 1.0212903125 -2.4830149680
530 1 5.0392640625 0.6896393750 -2.4112867920
531 1 2.7560446875 2.1034659375 -2.3946305200
532 1 2.7861715625 1.5323318750 -6.4651325467
533 1 5.0588021875 1.2801100000 -6.4728757574
534 1 2.7850159375 2.1261618750 -5.7008603608
535 1 2.8031296875 -1.8092653125 -6.4363085960
536 1 6.1804706250 -0.9868231250 -6.4645586436
537 1 6.1784818750 1.3089737500 -6.4697828328
538 1 5.0350043750 -1.0101640625 -6.4312046014
539 1 -5.6061317188 6.5752509375 -4.8411985600
540 1 -4.9625628125 6.7036193750 -2.3034095840
541 1 -6.1721958125 6.4839700000 -5.6561539424
542 1 -3.8596934375 2.9265396875 -3.1936782560
543 1 -6.1184081875 2.5947946875 -3.2314980960
544 1 -5.5278623125 2.6853903125 -3.9994869360
545 1 -4.5082678125 2.3366871875 -4.8637738960
546 1 -4.4137753125 2.8920053125 -4.0382652240
547 1 -3.8993071875 2.3414171875 -5.5993153856
548 1 -3.3272190625 2.4557568750 -4.8346578000
549 1 -2.7569315625 2.5969178125 -5.6046904656
550 1 -6.6824895781 2.4989450000 -4.0054966640
551 1 -6.2026451875 3.7259903125 -6.4630910395
552 1 -6.1482367500 3.1394031250 -5.6941615864
553 1 -5.6143245625 3.2290984375 -4.8206825920
554 1 -5.5951519375 3.7905843750 -4.0068436720
555 1 -5.0872493750 3.3225428125 -5.6893499184
556 1 -4.5302784375 3.4266700000 -4.8750162320
557 1 -4.4380837500 3.9618318750 -4.0028674080
558 1 -3.9418100000 3.4682187500 -5.6429882344
559 1 -3.3880775000 3.6342659375 -4.8747571920
560 1 -2.7701137500 4.2260937500 -6.4443593002
561 1 -3.3209840625 4.1667671875 -4.0296650960
562 1 -2.7688103125 3.6749681250 -5.6062006688
563 1 -6.6538073688 4.1501987500 -4.8857016320
564 1 -6.1891955938 4.8653156250 -6.4316811054
565 1 -6.0899421875 4.2892634375 -5.6632671808
566 1 -5.5445799063 4.3503637500 -4.8199702320
567 1 -5.6578029375 4.9174800000 -4.0160525440
568 1 -5.0011284375 4.4303168750 -5.7061266440
569 1 -4.4792831250 4.5284509375 -4.8017985760
570 1 -3.8723381250 5.7131815625 -5.6792952808
571 1 -4.5071390625 5.1105231250 -4.0291988240
572 1 -3.9666828125 4.6226209375 -5.6968853920
573 1 -3.4077500000 4.7279037500 -4.8390614800
574 1 -2.7381996875 5.3572759375 -6.4585265863
575 1 -3.3450237500 5.2833696875 -4.0063774000
576 1 -2.8459012500 4.7735778125 -5.6561422856
577 1 -6.6518175438 5.8824134375 -4.0772896000
578 1 -6.1885170000 5.4174625000 -5.6033758376
579 1 -5.5628172813 5.4285753125 -4.9035106320
580 1 -5.5864551875 6.0016712500 -4.0863819040
581 1 -4.9964253125 5.5667800000 -5.6515300784
582 1 -4.4363368750 5.6697918750 -4.8594738320
583 1 -5.0750212500 6.1388009375 -6.4036709807
584 1 -4.5163034375 6.1938409375 -3.9895527520
585 1 -3.3465018750 5.8493706250 -4.8136237520
586 1 -3.3923506250 6.3878112500 -4.0590402320
587 1 -2.8246834375 5.9300628125 -5.6755923040
588 1 -6.1431667813 3.1618975000 -2.4355458880
589 1 -4.9608159375 2.7388043750 -3.2098553040
590 1 -3.8995087500 2.3903968750 -2.3340151600
591 1 -3.3485040625 3.0460125000 -4.0971191120
592 1 -2.8172256250 3.1804009375 -3.2082104000
593 1 -6.1770776563 3.7195134375 -3.2499546960
594 1 -5.0194975000 3.9017931250 -3.2356556880
595 1 -5.0596621875 3.3043350000 -2.4569037360
596 1 -3.8737356250 4.0548731250 -3.2121866640
597 1 -3.9682953125 3.4954700000 -2.3997077040
598 1 -2.7529406250 4.2442209375 -3.2281953360
599 1 -2.8140543750 3.7279118750 -2.3384317920
600 1 -6.2092550938 4.8669012500 -3.1934580720
601 1 -6.1150541875 4.2689325000 -2.4310126880
602 1 -5.0744703125 5.0109512500 -3.2456157760
603 1 -5.0258400000 4.4468584375 -2.4247827760
604 1 -3.9337878125 5.1742840625 -3.2562752720
605 1 -3.9216940625 4.6332903125 -2.4353257040
606 1 -2.7730162500 5.3719765625 -3.2502655440
607 1 -2.8314290625 4.8108131250 -2.4182679200
608 1 -6.1955139063 6.5316865625 -2.3740497920
609 1 -6.1461673750 5.9766371875 -3.1905697760
610 1 -5.1045165625 6.1646815625 -3.1819955520
611 1 -4.9974196875 5.5511790625 -2.4465032800
612 1 -3.9565509375 6.3193875000 -3.2187015200
613 1 -3.9079340625 5.7474875000 -2.4672264800
614 1 -2.8560465625 6.5541943750 -3.1845470960
615 1 -2.8241593750 5.9358946875 -2.4778082640
616 1 -2.2694056250 3.1576243750 -4.0645059760
617 1 -2.2968450000 4.9590153125 -4.8610539760
618 1 -2.2456750000 6.0461359375 -4.8621808000
619 1 -2.2807737500 6.5546781250 -4.0135916640
620 1 -2.7275706250 2.6369078125 -2.4109888960
621 1 -6.1250543750 5.4116575000 -2.3730006800
622 1 -5.1011034375 5.0163396875 -6.4755195598
623 1 -6.6831296063 3.0608340625 -4.8148800960
624 1 -4.9463975000 2.7401346875 -6.4362422818
625 1 -3.8765037500 2.9092456250 -6.4313430582
626 1 -2.8117162500 3.1194484375 -6.4614204517
627 1 -3.8538212500 4.0321906250 -6.4502560867
628 1 -4.0247731250 6.2731625000 -6.4519182169
629 1 1.7411640625 2.2900053125 -5.6870677760
630 1 -2.2122021875 3.7591271875 -4.7979777360
631 1 2.1903528125 6.6789346875 -4.8129891040
632 1 1.1794362500 2.3776715625 -4.8972677680
633 1 -2.1659100000 2.5863693750 -4.8522725200