ITEM: TIMESTEP
195000
ITEM: NUMBER OF ATOMS
2304
ITEM: BOX BOUNDS pp pp pp
-6.7187500000 6.7187500000
-6.7187500000 6.7187500000
-6.4760000000 6.4760000000
ITEM: ATOMS id type x y z
1 1 -6.7100727075 -5.4037696875 -4.0553489120
2 1 -5.6231919688 -6.2479833125 -4.0812011040
3 1 -3.9406543750 -5.4613211563 -5.6782332168
4 1 -4.4974909375 -6.6751295906 -4.8688769840
5 1 -3.9389612500 -6.6001350375 -5.6706407544
6 1 -4.4875606250 -6.1271734688 -4.0537169600
7 1 -3.3563650000 -4.8278250000 -4.0558799440
8 1 -3.3857931250 -6.4619943125 -4.8656260320
9 1 -6.1303554688 -5.8101828438 -5.6475343864
10 1 -4.9863337500 -5.6685986250 -5.6760041776
11 1 -5.5859835313 -4.6252681250 -4.9092354160
12 1 -4.4672431250 -5.5306788125 -4.8062670160
13 1 -4.4905706250 -4.9464109375 -4.0649333920
14 1 -3.8834912500 -3.8402762500 -3.2171990880
15 1 -3.3583671875 -5.9352564063 -4.0036315760
16 1 -2.8156803125 -5.2913515625 -5.6783407184
17 1 -6.1917110938 -4.6180656250 -5.6784611720
18 1 -4.4634940625 -4.3813909375 -4.8654317520
19 1 -5.0212981250 -3.9264778125 -6.3914769318
20 1 -5.5700493438 -4.0999828125 -4.0189408400
21 1 -3.8831150000 -4.4049334375 -5.6630962144
22 1 -3.3653143750 -5.3900271563 -4.8547722560
23 1 -3.9320275000 -3.8324421875 -6.4550221637
24 1 -4.4757759375 -3.8528806250 -3.9846309920
25 1 -3.3539731250 -4.2430653125 -4.8093754960
26 1 -3.9227153125 -4.9200331250 -3.2359794880
27 1 -2.8179512500 -4.1526309375 -5.6617466160
28 1 -3.9206593750 -4.3714068750 -2.3771712240
29 1 -5.5743910000 -3.5510609375 -4.8381548400
30 1 -5.5857416563 -2.9611009375 -4.0983625040
31 1 -6.1584344688 -5.2336240625 -6.4049400177
32 1 -5.0571090625 -2.7636771875 -3.2351505600
33 1 -5.0591381250 -3.3177456250 -5.6763033688
34 1 -4.4604571875 -3.3411806250 -4.9038085280
35 1 -3.8804812500 -2.6525625000 -6.4156637556
36 1 -4.4535771875 -2.8110712500 -4.0029062640
37 1 -3.8901159375 -3.2477228125 -5.6939064320
38 1 -3.3517559375 -3.1031218750 -4.8611834960
39 1 -3.9095734375 -2.6360881250 -3.1833814160
40 1 -2.7581946875 -3.1038609375 -5.6428457624
41 1 -6.6959423969 -6.4515842813 -4.0109106000
42 1 -6.1193850938 -6.3974351875 -3.1853371680
43 1 -5.0614762500 -6.2006927188 -3.2458100560
44 1 -3.9455053125 -6.0001823750 -3.2304489840
45 1 -2.8132078125 -4.7106231250 -3.2274700240
46 1 -2.7905387500 -5.8965738750 -3.2182741040
47 1 -6.1811962500 -5.1989553125 -3.2286227520
48 1 -6.1799586563 -5.7883254063 -2.4861752560
49 1 -5.5725178125 -5.6765079375 -4.8722445040
50 1 -5.0416290625 -5.6730692813 -2.3803574160
51 1 -5.5969995938 -5.1507684375 -3.9970001520
52 1 -6.1875925000 -4.0718446875 -3.2629326000
53 1 -6.1265728125 -4.6337606250 -2.4411670560
54 1 -5.0522850000 -3.9134568750 -3.1870468320
55 1 -5.0087878125 -5.1247937500 -3.2130026400
56 1 -2.7955240625 -4.1574146875 -2.3992155280
57 1 -3.3592809375 -3.6558868750 -4.0504271520
58 1 -6.1133798750 -3.0250634375 -3.2360312960
59 1 -6.1522693438 -3.5613675000 -2.3600227760
60 1 -4.9860381250 -3.3347171875 -2.4323337920
61 1 -3.8967675000 -3.2464059375 -2.4821083280
62 1 -2.7599146875 -2.5624506250 -3.2008148080
63 1 -2.7737687500 -3.6081165625 -3.2429994720
64 1 -2.2579300000 -5.2166256250 -4.8655094640
65 1 -2.7786196875 -5.2933000000 -2.4693117520
66 1 -6.6878958875 -4.8034762500 -4.8042206000
67 1 -6.7106746134 -2.4616425000 -4.9125511280
68 1 -6.0983392813 -2.4482453125 -5.6369836872
69 1 -5.5527149688 -2.3605253125 -4.8062540640
70 1 -6.1638954688 -2.4684284375 -2.4231508240
71 1 -5.0336740625 -2.2414959375 -2.3607610400
72 1 -3.3442309375 -2.5631762500 -3.9909386160
73 1 -2.7804875000 -6.4282285625 -5.6257685504
74 1 -2.8336462500 -6.4133384688 -2.3442601920
75 1 -2.2505125000 -5.7464877500 -4.0315172320
76 1 -3.8765843750 -5.4682011563 -2.3858231600
77 1 -5.0375978125 -4.5290556250 -2.4915762400
78 1 -2.8112190625 -3.0961075000 -2.3221770320
79 1 -5.0071618750 -4.5329659375 -5.6871105176
80 1 -6.1609566875 -3.5335653125 -5.6389523912
81 1 -6.7020274344 -4.1913712500 -4.1205492800
82 1 -6.6969608250 -3.0027303125 -4.0565534480
83 1 -4.4382718750 -2.2667853125 -4.8239853520
84 1 -3.9208878125 -6.5837864375 -2.4637423920
85 1 -6.2117262500 -6.3597752500 -6.4751781062
86 1 -3.8771218750 -6.0360940938 -6.4700459526
87 1 -2.8028206250 -5.8696840938 -6.4464616688
88 1 -5.0753034375 -5.1024606250 -6.4657357213
89 1 -2.7662034375 -4.7237381250 -6.4611457398
90 1 -2.7954703125 -2.5373493750 -6.4595460382
91 1 -2.2246587500 -6.3261962813 -4.8094143520
92 1 -2.2393728125 -2.3517103125 -4.0503753440
93 1 -1.6335700000 -4.5898737500 -3.2295812000
94 1 -1.1298921875 -6.3006139688 -4.8347484640
95 1 -2.2316462500 -4.6634709375 -3.9993056080
96 1 -1.6896984375 -6.2602544375 -5.6732674200
97 1 -1.1525612500 -5.1678340625 -4.8294899520
98 1 -1.0741265625 -5.7297096875 -4.0392625280
99 1 -0.0514790625 -6.4167247188 -4.8524020400
100 1 0.0306240625 -5.2451400000 -4.8571813280
101 1 0.0332443750 -5.8328613125 -4.0911482400
102 1 1.0980990625 -5.9762206250 -4.0490283360
103 1 0.5377956250 -6.5016752500 -5.6086537776
104 1 0.5499028125 -5.9352456563 -3.1870468320
105 1 1.1232943750 -6.5406198125 -4.8442940880
106 1 -1.6755218750 -5.1647971875 -5.6682394536
107 1 -0.5312112500 -4.1473768750 -5.6801358656
108 1 -1.1149631250 -4.5796343750 -4.0847888080
109 1 -0.5643481250 -5.2234250000 -5.6083157304
110 1 -0.0310271875 -4.6888812500 -4.0643635040
111 1 0.5575890625 -5.4099684063 -5.6835513080
112 1 1.1506531250 -5.4349997813 -4.8898592240
113 1 1.6869034375 -4.9148731250 -6.4576357478
114 1 1.1056912500 -4.8986003125 -3.9866256000
115 1 -2.2382575000 -4.1396771875 -4.8626211680
116 1 -2.2328556250 -3.5602790625 -4.0957850560
117 1 -1.6712621875 -4.0368131250 -5.6325877784
118 1 -1.0769215625 -4.0017143750 -4.8664808640
119 1 -0.5494593750 -3.5327321875 -6.3967473596
120 1 -1.7130259375 -3.4796809375 -3.2079254560
121 1 0.0387537500 -4.1237000000 -4.8623621280
122 1 1.1097225000 -3.8291231250 -4.0524865200
123 1 -0.0085059375 -3.5929590625 -3.9913142240
124 1 0.5750846875 -4.8137425000 -6.4199631720
125 1 0.5902287500 -4.2207321875 -5.7013175664
126 1 1.1422681250 -3.2399156250 -4.8030160640
127 1 1.1258071875 -4.3866181250 -4.8754306960
128 1 -2.2177787500 -2.9406356250 -4.7843263280
129 1 -1.6935281250 -2.9368731250 -5.6435322184
130 1 -1.0839628125 -2.9209631250 -4.8772828320
131 1 -1.0851990625 -2.3885425000 -4.0218420880
132 1 -0.5435065625 -2.9267412500 -5.7064439680
133 1 0.0063156250 -3.0724440625 -4.8849115600
134 1 0.6068778125 -3.0871178125 -5.6401867168
135 1 1.1370678125 -2.6533956250 -4.0633921040
136 1 1.7491056250 -2.7665662500 -6.4738148292
137 1 1.7144771875 -2.7432387500 -3.2809099760
138 1 1.6785856250 -3.3197612500 -5.6660402040
139 1 -1.6529334375 -5.7277316875 -3.2732035360
140 1 -0.5177737500 -5.7452662813 -3.2281564800
141 1 -0.5948646875 -6.3439458750 -2.4569296400
142 1 0.6006562500 -5.3689665625 -2.3871701680
143 1 0.4961528125 -6.5134733750 -2.4190709440
144 1 1.6321053125 -6.1234190313 -3.2103215760
145 1 1.6903031250 -6.6577964250 -2.3640767520
146 1 -1.7280625000 -5.1634534375 -2.4520985440
147 1 -0.5631656250 -4.6659971875 -3.2090393280
148 1 -0.5243446875 -4.0999290625 -2.4014691760
149 1 0.5108265625 -4.8288462500 -3.2293351120
150 1 1.6842428125 -4.9379318750 -3.2096351200
151 1 1.7257915625 -5.5399668125 -2.4658017600
152 1 -1.6361768750 -2.9230593750 -2.3843207280
153 1 -1.6866481250 -4.0411803125 -2.4075695680
154 1 -1.1468234375 -3.4693071875 -4.0263623360
155 1 -0.5836175000 -3.5507250000 -3.2309152560
156 1 0.5918950000 -3.6733825000 -3.2232994800
157 1 0.5832815625 -4.2599696875 -2.4576679040
158 1 1.7070731250 -3.7978809375 -3.2590729040
159 1 1.6865943750 -4.3654406250 -2.4548184640
160 1 -1.6595850000 -2.3957987500 -3.2536330640
161 1 0.0182615625 -2.5309396875 -4.0419435920
162 1 -0.5524828125 -2.9735575000 -2.4773808480
163 1 0.5995946875 -2.5339900000 -3.2376114400
164 1 0.5440709375 -3.1090881250 -2.4488864480
165 1 1.6592625000 -6.7017613719 -5.6689168432
166 1 2.2170934375 -6.1917823125 -3.9847734640
167 1 1.7033778125 -5.5017989375 -5.7005818928
168 1 2.2337021875 -3.3441100000 -4.8054898960
169 1 -0.5130840625 -2.3567896875 -3.2088709520
170 1 1.6751993750 -3.2554762500 -2.3904729280
171 1 -0.5915859375 -6.3093066875 -5.6911696744
172 1 -1.6656184375 -6.2434481563 -2.4020261120
173 1 -0.6094578125 -5.2235325000 -2.3772230320
174 1 1.7251734375 -4.3620543750 -5.6386052776
175 1 0.5621175000 -3.6274396875 -6.4643785460
176 1 2.2057118750 -5.1195665625 -4.0580429280
177 1 2.2182893750 -2.2476637500 -4.9128878800
178 1 -1.6788678125 -4.5869981250 -6.4634282837
179 1 -1.6510387500 -3.4911162500 -6.4756563044
180 1 1.6767043750 -6.1070145313 -6.4052292358
181 1 2.3090193750 -2.7803531250 -4.0331491840
182 1 6.1162931250 -5.9060231250 -5.6572742904
183 1 6.7023831250 -5.9319198750 -4.9152840000
184 1 6.1765737500 -4.8042690625 -5.6270054664
185 1 6.7144903125 -3.5788228125 -4.8248531360
186 1 3.3268965625 -6.3985625938 -4.0565664000
187 1 4.4618278125 -6.5211246875 -4.0770953200
188 1 5.6340750000 -6.5734892813 -4.0299759440
189 1 3.3642931250 -4.6370528125 -4.8062799680
190 1 2.2462662500 -5.6849560938 -4.8729827680
191 1 2.7909418750 -6.2030698125 -6.4419955602
192 1 2.8395856250 -5.6448774063 -5.6401543368
193 1 3.3528309375 -5.2307215625 -4.0645189280
194 1 3.9230512500 -5.9005056875 -5.6675983296
195 1 4.4744187500 -5.9141743125 -4.8055676080
196 1 5.0432818750 -4.9169828125 -5.6474463128
197 1 4.5127693750 -5.3365687500 -4.0194718720
198 1 4.9996906250 -6.0315898438 -5.6725071376
199 1 5.5687284375 -6.0271299375 -4.8432579280
200 1 5.6093768750 -5.4310639375 -4.0879102400
201 1 2.2603218750 -4.5323209375 -4.8069664240
202 1 2.8173465625 -4.0568081250 -3.2768171440
203 1 3.4259981250 -4.0734437500 -4.0223731200
204 1 3.3786846875 -5.8190744375 -4.8144915360
205 1 3.3391381250 -3.5442481250 -4.8936671120
206 1 3.8728218750 -4.8083003125 -5.6878319440
207 1 4.4539803125 -4.8138500000 -4.8999747360
208 1 4.5159675000 -4.2800587500 -4.0215182880
209 1 5.0358375000 -4.3468296875 -6.4408456816
210 1 5.6038406250 -4.8503328125 -4.8549924400
211 1 5.5937893750 -4.2888200000 -4.0554525280
212 1 2.2514128125 -3.9511221875 -4.0689614640
213 1 3.9258596875 -3.6388750000 -5.6367065144
214 1 3.4201259375 -2.4356812500 -4.8775548240
215 1 4.4388496875 -3.1883693750 -4.0560224160
216 1 4.5368896875 -2.5972671875 -4.7933409200
217 1 5.0436178125 -2.6342471875 -5.7014121160
218 1 5.6178425000 -3.7171753125 -4.8579325440
219 1 5.6133140625 -3.1731446875 -4.0010929840
220 1 6.1858725000 -3.7346575000 -5.6750250064
221 1 2.8017590625 -6.2438875625 -3.2216286720
222 1 3.9225137500 -6.4355963438 -3.2564825040
223 1 5.0339696875 -6.5672663750 -3.2899893280
224 1 6.1752837500 -6.4998732813 -3.2154117120
225 1 2.8196578125 -5.6647272813 -2.4427990080
226 1 3.9162921875 -5.3761932500 -3.2722839440
227 1 3.9309390625 -5.9008349063 -2.3898900880
228 1 5.0687325000 -5.5026253438 -3.2227295920
229 1 5.0370468750 -6.0467460000 -2.4020131600
230 1 6.1392040625 -5.3438921875 -3.2500324080
231 1 6.1676646875 -5.9230618750 -2.4489253040
232 1 2.8169165625 -4.5687231250 -2.3878695760
233 1 2.7956853125 -5.1112756250 -3.2647588320
234 1 3.9491200000 -4.2377440625 -3.1928752320
235 1 3.8772428125 -4.8333209375 -2.4317639040
236 1 5.0711781250 -4.3359856250 -3.1857386800
237 1 4.9959818750 -4.9201137500 -2.4573441040
238 1 6.1887346875 -4.3102931250 -3.2705224720
239 1 6.1651787500 -4.8238609375 -2.3552046320
240 1 3.3768303125 -2.9956084375 -4.0553877680
241 1 2.8423000000 -2.9468840625 -3.1847543280
242 1 6.2032875000 -3.2139140625 -3.2517161680
243 1 3.9260746875 -3.6760700000 -2.4228011200
244 1 3.9220568750 -3.0664509375 -3.1712712960
245 1 5.0872090625 -3.7404490625 -2.4380326720
246 1 5.0131818750 -3.1971709375 -3.2668959120
247 1 6.1562965625 -3.7539671875 -2.4203661440
248 1 2.8329609375 -2.3484987500 -5.6053691504
249 1 4.5102028125 -3.7347246875 -4.8806892080
250 1 4.0028296875 -2.5211168750 -5.6557459544
251 1 5.6032225000 -2.6496600000 -4.8518839600
252 1 6.1472262500 -2.5564709375 -5.6829775344
253 1 2.7634890625 -3.5152231250 -2.4107557600
254 1 3.9825256250 -2.4836665625 -2.4078415600
255 1 5.0672946875 -2.6706359375 -2.3950579360
256 1 6.1804571875 -2.6558143750 -2.4583414080
257 1 2.8022696875 -4.5948187500 -5.6597494176
258 1 2.7534781250 -3.5030756250 -5.6711277496
259 1 3.9626784375 -4.2114603125 -6.4228585916
260 1 5.0705062500 -3.7544375000 -5.6750975376
261 1 6.1940425000 -3.1635637500 -6.4433252125
262 1 2.8112056250 -2.3585903125 -2.4411152480
263 1 2.8410771875 -2.9083721875 -6.4181062438
264 1 3.8852112500 -3.0821190625 -6.4544806406
265 1 6.1546034375 -6.5095805313 -6.3974922291
266 1 5.0798050000 -5.4640140313 -6.4695247901
267 1 -3.8870656250 -2.0512746875 -2.4443143920
268 1 -6.7048655688 -1.9436940625 -4.0320741680
269 1 -5.5739959375 -1.7840296875 -4.0429927040
270 1 -5.0021631250 -2.2224684375 -5.6466109088
271 1 -4.4316740625 -1.6618559375 -4.0929485680
272 1 -3.9289234375 -2.0480900000 -5.6810865424
273 1 -3.3315728125 -2.0497428125 -4.9013087920
274 1 -3.3268831250 -1.5123637500 -4.0287584560
275 1 -6.1361618125 -1.3130856250 -5.6552965200
276 1 -6.7049491500 -0.8177390625 -4.0449873120
277 1 -6.1231019063 -1.8935856250 -6.4364343599
278 1 -5.5796732813 -1.2342881250 -4.8462757440
279 1 -4.9980243750 -0.6178696875 -6.4486860453
280 1 -5.6142358750 -0.6457390625 -4.0801001840
281 1 -5.0048775000 -1.1562431250 -5.6338311704
282 1 -4.4376000000 -1.0742475000 -4.8352276880
283 1 -4.4874665625 -0.4997675000 -4.0667725760
284 1 -3.8769740625 -0.9606871875 -5.6591536256
285 1 -3.3079228125 -0.9591150000 -4.8503815280
286 1 -3.3527771875 -0.3825790625 -4.0802167520
287 1 -2.7830675000 -0.7538706250 -5.6966898168
288 1 -6.2927140625 -0.2550571875 -5.6668095528
289 1 -5.6431533750 -0.1034687500 -4.8725294480
290 1 -5.5838066563 0.4834140625 -4.0971968240
291 1 -5.1207356250 -0.0517478125 -5.6492634784
292 1 -4.4702531250 0.0337415625 -4.8939779600
293 1 -4.4994259375 0.6113659375 -4.1201995760
294 1 -3.9021156250 0.1544506250 -5.6408407928
295 1 -3.3125721875 0.1926668750 -4.8579325440
296 1 -2.7972171875 0.8914706250 -6.4723846435
297 1 -3.3602753125 0.7458887500 -4.0539371440
298 1 -2.7585709375 0.3219356250 -5.6714683872
299 1 -6.1360583438 1.4822503125 -6.3860342423
300 1 -6.1633902188 1.5225090625 -3.2253199920
301 1 -6.1901268125 0.9025834375 -5.6808754248
302 1 -5.6142923125 1.0272700000 -4.9210346880
303 1 -5.0361062500 1.6068159375 -6.4277180525
304 1 -5.5695373750 1.5399509375 -3.9917416400
305 1 -4.9898006250 1.0247706250 -5.6796087192
306 1 -4.4710056250 1.2184856250 -4.8357069120
307 1 -4.4511315625 1.7857900000 -4.0493521360
308 1 -3.8976946875 1.2456159375 -5.6473245640
309 1 -3.3322446875 1.3101965625 -4.8296324240
310 1 -2.7319512500 2.0109487500 -6.4711618452
311 1 -2.7877303125 1.4432546875 -5.6610757024
312 1 -6.1299563750 -1.9108796875 -3.2466778400
313 1 -4.9802734375 -1.7160359375 -3.2665850640
314 1 -3.9116428125 -1.4775606250 -3.2323529280
315 1 -2.8030625000 -1.3631134375 -3.2000376880
316 1 -6.1448975313 -0.8118668750 -3.2297884320
317 1 -6.0789758438 -1.3626968750 -2.4191357040
318 1 -5.0359315625 -0.6201003125 -3.2764026800
319 1 -5.0229643750 -1.1593875000 -2.4338750800
320 1 -3.8922121875 -0.3987981250 -3.2724523200
321 1 -3.9268675000 -0.9335165625 -2.3951615520
322 1 -2.7890471875 -0.2135353125 -3.2244910640
323 1 -2.7797753125 -0.7773190625 -2.4440812560
324 1 -6.1350465000 -0.2504346875 -2.4213764000
325 1 -5.0308925000 0.4681490625 -3.2398003280
326 1 -4.9691068750 -0.0795096875 -2.4079710800
327 1 -3.9507459375 0.6970434375 -3.2817389040
328 1 -3.8868371875 0.1504462500 -2.4363359600
329 1 -6.0963827813 2.0770612500 -2.4164546400
330 1 -6.0956195313 0.3154990625 -3.2025115200
331 1 -4.9882015625 1.5891859375 -3.2194786400
332 1 -5.0168503125 1.0295543750 -2.4214023040
333 1 -2.7893696875 1.9919212500 -3.2666368720
334 1 -3.8536196875 1.2157712500 -2.3907708240
335 1 -2.7820462500 0.8854103125 -3.2825289760
336 1 -2.7715784375 1.4326256250 -2.4265442480
337 1 -2.7678965625 -1.9664303125 -5.6826861144
338 1 -6.6536451781 0.2618431250 -4.0181896240
339 1 -6.6658953406 1.3101293750 -4.0640397040
340 1 -6.1552121563 2.1218350000 -5.6566500040
341 1 -5.5690993125 2.0553731250 -4.8885640240
342 1 -5.0108034375 2.2132771875 -5.7128228280
343 1 -3.3301618750 1.9198290625 -4.1028050400
344 1 -6.1584452188 0.9189368750 -2.5034014160
345 1 -5.0000131250 2.1950425000 -2.5076237680
346 1 -3.8712228125 1.7564290625 -3.2509260960
347 1 -2.7537737500 -1.9567553125 -2.4660996560
348 1 -2.8085181250 0.3613746875 -2.4257412240
349 1 -6.7090814903 1.9102615625 -4.8273140160
350 1 -6.6862776094 -1.3924878125 -4.8300339360
351 1 -2.7548218750 -1.3646184375 -6.4115573240
352 1 -3.9502756250 -0.4030846875 -6.4590039970
353 1 -6.1240532813 0.3206053125 -6.4723548927
354 1 -2.2172681250 -1.8069406250 -4.8739282640
355 1 -2.2267684375 -1.2679087500 -3.9844626160
356 1 -2.2021778125 -0.7535346875 -4.8717652800
357 1 1.7114134375 -1.6354915625 -3.1964499840
358 1 -1.6440243750 1.0032840625 -3.2312520080
359 1 -1.6315543750 -1.8372153125 -5.6646919008
360 1 -1.0867981250 -1.2445006250 -4.0568902000
361 1 -0.5409668750 -1.8048712500 -5.6433534808
362 1 -0.4981415625 -1.2703409375 -3.2537496320
363 1 -1.1131087500 -1.8140221875 -4.8222756880
364 1 0.0098765625 -1.9423906250 -4.8149578080
365 1 0.0495037500 -1.3597809375 -4.0669539040
366 1 0.5275562500 -2.0252462500 -5.6775597128
367 1 1.1070753125 -2.0681790625 -4.8335957360
368 1 1.7067237500 -1.6104709375 -6.4158695629
369 1 1.1839646875 -1.5029843750 -4.0441065760
370 1 1.6319978125 -2.2062762500 -5.6705656328
371 1 -2.2355162500 -0.1954215625 -4.0461659440
372 1 -1.6566959375 -0.6989381250 -5.6734798328
373 1 -1.1061750000 -0.6478890625 -4.8209286800
374 1 -0.5188084375 -0.1834890625 -3.2646293120
375 1 -0.5741575000 -0.7552546875 -5.6690904000
376 1 -0.0145931250 -0.7803425000 -4.8440480000
377 1 0.5429018750 -0.8906509375 -5.6598815280
378 1 0.0668381250 -0.2211409375 -4.0460752800
379 1 0.6197778125 -1.4607234375 -6.4531656240
380 1 1.1293950000 -0.9814481250 -4.9240266000
381 1 1.1228375000 -0.4295162500 -4.0929356160
382 1 1.7534728125 -1.0489984375 -5.6164301584
383 1 -2.1987915625 0.3770428125 -4.8341008640
384 1 -1.6642881250 1.0090890625 -6.4519511150
385 1 -2.1938196875 0.9437425000 -4.0478497040
386 1 -1.6783437500 0.4161056250 -5.6972350960
387 1 -1.0952503125 -0.0964812500 -4.0185781840
388 1 -1.1083653125 0.4364231250 -4.8735397040
389 1 -0.5436812500 0.3988653125 -5.6632490480
390 1 0.0389284375 0.3067781250 -4.8970864400
391 1 -0.0032921875 0.8570975000 -4.0740516000
392 1 0.6507243750 0.2509050000 -5.6158045768
393 1 1.2277037500 0.1516959375 -4.8550442480
394 1 1.7726078125 0.0363887500 -5.7001829712
395 1 1.1286156250 0.6877715625 -4.0176197360
396 1 -2.2148359375 1.4850990625 -4.8862974240
397 1 -1.6660350000 2.1445846875 -6.4357291235
398 1 -2.2047846875 2.0382537500 -4.0573953280
399 1 -1.6263540625 1.5666646875 -5.6601910808
400 1 -1.0724871875 1.0006100000 -4.0471114400
401 1 -1.0599768750 1.5374784375 -4.8881754640
402 1 -0.4608928125 1.5273465625 -5.6424805160
403 1 0.0909046875 1.4384440625 -4.8316140800
404 1 0.0116503125 1.9877153125 -4.0142651680
405 1 0.6265100000 1.3273293750 -5.6993825376
406 1 1.1530718750 1.2774090625 -4.7835362560
407 1 1.6734659375 1.1732012500 -5.7066745136
408 1 -1.6235187500 -1.2721818750 -3.2416654160
409 1 -0.5472959375 -0.7236093750 -2.4053418240
410 1 0.6017715625 -1.4583853125 -3.2557312880
411 1 0.5740768750 -1.9947834375 -2.3942678640
412 1 1.7300378125 -1.0667628125 -2.4290180800
413 1 -1.6421700000 -0.7014778125 -2.4589890080
414 1 -0.5351753125 0.3519550000 -2.4310904000
415 1 -0.5373521875 0.9531218750 -3.1869302640
416 1 0.6021075000 -0.3367571875 -3.1898962720
417 1 1.6584696875 -0.4829034375 -3.2043636560
418 1 -1.6868093750 1.5758156250 -2.4476171520
419 1 -1.6741109375 -0.1234368750 -3.2282471440
420 1 -0.5600884375 2.0814418750 -3.2431419440
421 1 -1.6583621875 0.4456412500 -2.4363748160
422 1 -0.4997809375 1.5302625000 -2.4332663360
423 1 0.5488681250 0.8090181250 -3.2402018400
424 1 1.7328059375 0.6183131250 -3.3206208080
425 1 1.7572218750 0.0976100000 -2.4412836240
426 1 -1.6628637500 2.1536146875 -3.2109562240
427 1 0.6177890625 1.9060018750 -3.3059980000
428 1 1.2345703125 1.8528162500 -4.0068177680
429 1 1.6452203125 1.1430743750 -2.4450138000
430 1 2.2106031250 1.0850109375 -4.8816217520
431 1 1.7979375000 1.7232787500 -3.2202687120
432 1 1.7926968750 1.7720568750 -6.4387140414
433 1 -1.6884353125 -1.8260084375 -2.4350148560
434 1 -0.5940046875 -1.8170725000 -2.4057303840
435 1 1.6606600000 -2.2119065625 -2.4038523440
436 1 0.5576025000 -0.9265693750 -2.4124524720
437 1 0.6138518750 0.2375212500 -2.4329943440
438 1 0.6214978125 1.3662578125 -2.4371907920
439 1 -1.1290859375 2.0858628125 -4.0567347760
440 1 2.2000278125 -0.5819646875 -4.0400914560
441 1 -1.6610362500 -1.2687284375 -6.4704446929
442 1 -0.4934787500 -0.1680762500 -6.4383693887
443 1 -0.5425525000 0.9751056250 -6.4446039634
444 1 0.5796400000 -0.2998443750 -6.4268681422
445 1 2.3350612500 -1.1256190625 -4.8647452960
446 1 2.2423828125 -1.7004887500 -4.0811622480
447 1 6.6303446875 -0.2469812500 -4.9263061520
448 1 6.6650940625 0.8026218750 -4.9123957040
449 1 2.3100943750 0.0058184375 -4.8097770080
450 1 2.7474446875 -1.8223937500 -6.4734252719
451 1 2.7843978125 -1.7682406250 -3.1938077760
452 1 3.3541881250 -0.2068568750 -4.8613777760
453 1 4.5027853125 -2.0079521875 -4.0089289440
454 1 6.2238200000 -1.9870568750 -6.4280595967
455 1 5.6473378125 -2.0408068750 -4.0500126880
456 1 2.7920571875 -0.6713240625 -3.3148701200
457 1 2.8785812500 -1.2412890625 -5.6853930824
458 1 4.0093737500 -0.8537918750 -3.2670772400
459 1 3.4155437500 -1.3037196875 -4.7795340880
460 1 3.9035937500 -1.4099162500 -5.7064232448
461 1 4.4735587500 -1.4936318750 -4.8647323440
462 1 5.0237437500 -1.4659506250 -5.6737272160
463 1 5.5967321875 -1.5637084375 -4.8876703360
464 1 6.1685650000 -0.8122028125 -6.3631914475
465 1 6.1813843750 -0.9549225000 -3.2145309760
466 1 2.3668812500 0.5601287500 -4.0057557040
467 1 2.8226140625 -0.1300212500 -5.7367205632
468 1 3.4241034375 -0.7374500000 -3.9906018640
469 1 3.4812800000 0.3777415625 -4.1062114160
470 1 3.9256850000 -0.2838000000 -5.6344943128
471 1 4.5359356250 -0.4028696875 -4.9226407360
472 1 5.0534271875 0.2062521875 -6.4560697214
473 1 4.4782350000 0.1995334375 -4.1202513840
474 1 6.1804706250 -1.3470690625 -5.6702340616
475 1 5.7203706250 -0.4715353125 -4.9626883200
476 1 5.6186218750 -0.9621384375 -4.0508804720
477 1 6.2187809375 0.1223753125 -6.2759783784
478 1 2.8386718750 1.0208737500 -5.6000691920
479 1 3.4569984375 0.9055934375 -4.9690348000
480 1 3.8679306250 1.3790906250 -6.4685980874
481 1 3.3392456250 1.4370465625 -4.0840634960
482 1 4.1458584375 0.8114368750 -5.6469826312
483 1 4.4504059375 1.3076837500 -4.0489376720
484 1 4.6621406250 0.7700225000 -4.9375873440
485 1 5.0328409375 1.2618350000 -3.3182764960
486 1 5.1663021875 -0.2171365625 -5.6217819248
487 1 5.6029671875 0.6716062500 -4.8126653040
488 1 6.1678125000 1.3612993750 -3.2533999280
489 1 5.9514015625 0.7361868750 -5.7001233920
490 1 3.3131096875 -1.9022931250 -4.0380968480
491 1 5.0853143750 -2.1164196875 -3.2447479920
492 1 6.1757271875 -2.0573887500 -3.1890543920
493 1 2.7865612500 -0.1347512500 -2.4421773120
494 1 2.8839428125 -1.1888156250 -2.4313494400
495 1 3.9137793750 -1.9698434375 -3.2883703280
496 1 3.9145184375 -1.4181400000 -2.4423586400
497 1 4.5775650000 -0.8836096875 -4.0795821040
498 1 5.0092715625 -1.5672962500 -2.4336419440
499 1 5.0805843750 -0.9811793750 -3.1774882560
500 1 6.2113500000 -1.4929331250 -2.3970395920
501 1 2.8380537500 1.6009706250 -3.1495248880
502 1 2.9197134375 0.4281456250 -3.2291278800
503 1 3.9614018750 0.2861784375 -3.1681757680
504 1 3.8986353125 -0.3143031250 -2.4286813280
505 1 5.0042996875 0.1852225000 -3.2651603440
506 1 5.1003778125 -0.3750675000 -2.4461406240
507 1 5.5937356250 0.0780584375 -4.0184098080
508 1 2.3315137500 1.6556881250 -4.0943344320
509 1 3.8895918750 1.4268206250 -3.2415358960
510 1 3.9773656250 0.8788259375 -2.4108982320
511 1 5.6490443750 1.2631115625 -4.0597007840
512 1 6.1759825000 0.2213021875 -3.2962710480
513 1 6.1796912500 0.7754243750 -2.4687677680
514 1 2.2938618750 2.2020165625 -4.9202187120
515 1 2.8909706250 2.1664206250 -5.6265249472
516 1 3.4884153125 2.0103843750 -4.8618829040
517 1 3.9930740625 1.9684190625 -5.7171060544
518 1 4.5207243750 1.9165368750 -4.8111499200
519 1 5.0788375000 1.6482168750 -5.6719100504
520 1 5.5844100000 1.8741684375 -4.8281170400
521 1 6.1787640625 1.8127053125 -5.6265819360
522 1 3.9919990625 1.9843021875 -2.4374627840
523 1 5.0437118750 1.7857093750 -2.4519949280
524 1 6.1558262500 1.8767618750 -2.3684027200
525 1 6.1846496875 -0.3320540625 -2.4896982000
526 1 2.7659346875 1.0021150000 -2.4276451680
527 1 5.1149709375 0.7273987500 -2.4252879040
528 1 2.8821018750 2.2075796875 -2.3969748320
529 1 5.0628334375 -0.8763131250 -6.4246046507
530 1 5.0796706250 -2.0308496875 -6.4476902955
531 1 4.0205940625 -0.8090046875 -6.4696419539
532 1 2.9233953125 0.4862628125 -6.4363435664
533 1 3.9641431250 0.2805750000 -6.4720061860
534 1 2.8168762500 1.5833943750 -6.4299634112
535 1 5.0488046875 1.1759290625 -6.4522931773
536 1 -4.4750234375 2.3308284375 -4.8925532400
537 1 -6.7016886750 6.4405534375 -4.8716875680
538 1 -5.5875772188 6.5959312500 -4.8099065280
539 1 -5.0774668750 6.6919153125 -5.6843115904
540 1 -3.3411134375 6.3988568750 -4.0848147120
541 1 -4.9872878125 6.6727534375 -2.4180995440
542 1 -2.2558875000 6.5076334375 -4.0859285840
543 1 -6.1299792188 6.5008206250 -5.6789870232
544 1 -3.8622465625 2.8889415625 -3.2077570800
545 1 -6.1506232500 2.6299606250 -3.2500971680
546 1 -5.0066512500 2.8174540625 -6.4295463568
547 1 -5.5596312500 2.6129756250 -4.0642987440
548 1 -3.9026800000 2.9006993750 -6.4126521566
549 1 -4.4431631250 2.8450815625 -3.9696196240
550 1 -3.8724321875 2.2940500000 -5.6781943608
551 1 -3.3579909375 2.5013771875 -4.8323264400
552 1 -2.7849487500 2.5452775000 -5.6242712992
553 1 -6.6763635563 2.4994556250 -4.1099545440
554 1 -6.1272110938 3.1482718750 -5.6167669104
555 1 -6.6920549281 3.6589371875 -4.0318280800
556 1 -5.5643021250 3.2083106250 -4.7987419040
557 1 -5.5745401563 3.8233450000 -4.1086334400
558 1 -5.0577271875 3.3909934375 -5.6530739568
559 1 -4.4381509375 3.3544031250 -4.8907140560
560 1 -3.9193693750 4.0981150000 -6.4380659234
561 1 -3.9615362500 4.1059625000 -3.2105158560
562 1 -3.9066037500 3.5054675000 -5.7092027440
563 1 -3.3463003125 3.6221050000 -4.9044172720
564 1 -2.8060187500 4.1965312500 -6.4404521998
565 1 -3.3689425000 4.1199778125 -3.9754868800
566 1 -2.7481568750 3.6112071875 -5.6752931128
567 1 -6.1918521875 5.4112812500 -5.7045218912
568 1 -6.1370742188 4.2333365625 -5.6741947832
569 1 -5.5892488438 4.9450134375 -4.0010800320
570 1 -5.6142385625 4.4238803125 -4.8513917840
571 1 -4.4724568750 3.9017528125 -4.0618249120
572 1 -3.9130940625 5.7078603125 -5.6105810352
573 1 -4.4512928125 4.4972759375 -4.8079896320
574 1 -5.0009268750 4.4291746875 -5.6122971752
575 1 -3.3281462500 4.6527209375 -4.8675817840
576 1 -2.7924065625 5.3973331250 -6.4321889534
577 1 -3.3499418750 5.2109953125 -4.0635475280
578 1 -2.7965856250 4.7945671875 -5.7137476008
579 1 -6.6981073125 5.2948453125 -4.8148412400
580 1 -5.6280536563 5.4878750000 -4.8714803360
581 1 -5.6229205313 6.0219484375 -4.0218809440
582 1 -5.0557787500 5.5311034375 -5.6746286752
583 1 -4.5304800000 5.6873009375 -4.8485552960
584 1 -4.4539400000 6.2215893750 -4.0028285520
585 1 -3.9117368750 6.2602087500 -6.4471329710
586 1 -3.3668193750 5.7993831250 -4.8133258560
587 1 -2.7933203125 6.4744293750 -3.2084305840
588 1 -2.8148068750 5.9568168750 -5.6332625776
589 1 -6.1572748125 3.1600296875 -2.3569142960
590 1 -5.0519356250 2.8082493750 -3.2194656880
591 1 -3.9059318750 2.3122309375 -2.4292382640
592 1 -3.3337765625 3.0780340625 -4.0494168960
593 1 -2.7557625000 3.0432981250 -3.2238952720
594 1 -6.1012122188 3.6681015625 -3.2519752080
595 1 -5.0453915625 3.9099093750 -3.2356168320
596 1 -4.9811737500 3.3574265625 -2.4042150000
597 1 -3.8828059375 3.4949728125 -2.5020932640
598 1 -2.7826375000 3.6245371875 -2.4351832320
599 1 -2.7824090625 4.1830668750 -3.2328192000
600 1 -6.1782453750 4.8164165625 -3.2492164320
601 1 -6.1710173438 4.2454303125 -2.4623824320
602 1 -4.4680493750 5.0985368750 -4.0998001760
603 1 -4.9915206250 4.9738637500 -3.2479859920
604 1 -3.9186303125 5.2019787500 -3.2430512800
605 1 -3.8797153125 4.6485821875 -2.3933871280
606 1 -2.8292925000 5.3945784375 -3.2142071760
607 1 -2.7783778125 4.7791275000 -2.4871596080
608 1 -6.1668866563 6.4720240625 -2.3871183600
609 1 -6.2148276250 5.9418475000 -3.2330393840
610 1 -5.0595009375 6.1349981250 -3.2606660000
611 1 -5.0562759375 5.5573065625 -2.4787408080
612 1 -3.8713571875 6.2853234375 -3.2362385280
613 1 -3.9721115625 5.7335259375 -2.3944880480
614 1 -2.7992059375 5.9225646875 -2.3620821440
615 1 -2.2470993750 3.1790034375 -4.0941531040
616 1 -2.2507946875 4.8833756250 -4.8735656080
617 1 -2.7595653125 2.5048843750 -2.3657475600
618 1 -5.0753034375 4.4492234375 -2.3762904880
619 1 -6.1168924375 5.3733337500 -2.4443143920
620 1 -5.0503768750 4.9620521875 -6.4726455097
621 1 -3.9243950000 4.6785343750 -5.6632788376
622 1 -6.7096289878 4.1946231250 -4.8891468640
623 1 -4.9743071875 6.1009878125 -6.4509249280
624 1 -6.1259869375 4.8059890625 -6.4334423184
625 1 -2.1923818750 2.6054371875 -4.8588262320
626 1 -2.2314715625 4.3586546875 -4.0089548480
627 1 -2.2367928125 5.4279975000 -3.9947724080
628 1 -1.7421718750 6.6293234375 -3.2058013280
629 1 1.0789506250 2.3708184375 -4.8777491040
630 1 -1.6342150000 2.7214296875 -5.6484824728
631 1 -1.0568996875 2.6627750000 -4.8501354400
632 1 -1.1022109375 3.2144246875 -4.0318798880
633 1 -0.5274890625 2.6150584375 -5.7110730128