ITEM: TIMESTEP
31000
ITEM: NUMBER OF ATOMS
2304
ITEM: BOX BOUNDS pp pp pp
-6.7187500000 6.7187500000
-6.7187500000 6.7187500000
-6.4760000000 6.4760000000
ITEM: ATOMS id type x y z
1 1 -5.6117203750 -6.4708603750 -4.0217643760
2 1 -4.4644481250 -6.5942535781 -4.0284476080
3 1 -3.3368268750 -6.5136668750 -4.1133350160
4 1 -6.7114054656 -5.7467591875 -4.8624786960
5 1 -6.1570598125 -5.8175533125 -5.6787344592
6 1 -5.5987357188 -5.9373996875 -4.8656001280
7 1 -5.5965521250 -5.3706462500 -4.0633662000
8 1 -5.0366975000 -5.9627414688 -5.6878837520
9 1 -4.4969131250 -6.0334549688 -4.8515601600
10 1 -4.4666115625 -5.4531834063 -4.0685210960
11 1 -3.9310600000 -6.0429942500 -5.6881803528
12 1 -3.4028587500 -5.9163780625 -4.8393723280
13 1 -3.3490818750 -5.3550990625 -4.0187206560
14 1 -2.8323025000 -5.9085171250 -5.6411762496
15 1 -6.7111885575 -4.0630968750 -4.0536133440
16 1 -6.1726137188 -4.6963390625 -5.6776646240
17 1 -5.6298180000 -4.7987328125 -4.8409006640
18 1 -5.5685685313 -4.2029006250 -4.0973911040
19 1 -5.0632231250 -4.8748293750 -5.6509329912
20 1 -4.4786515625 -4.8959396875 -4.8817383200
21 1 -3.9310465625 -4.3264181250 -6.4618654824
22 1 -4.4877890625 -4.3407156250 -4.0647391120
23 1 -3.9234678125 -4.8920159375 -5.6741701744
24 1 -3.3445265625 -4.8282684375 -4.8945219440
25 1 -3.4040681250 -4.2861996875 -4.0376694320
26 1 -2.7766175000 -4.7786706250 -5.7001985136
27 1 -6.1716381563 -3.0618821875 -6.4579872650
28 1 -6.7116518422 -2.8867646875 -4.0947229920
29 1 -6.2113970313 -3.6148756250 -5.6358283688
30 1 -5.6057097813 -3.6447875000 -4.8937318720
31 1 -5.0953118750 -3.1917556250 -6.4527661843
32 1 -5.6398155000 -3.1053793750 -4.0461659440
33 1 -5.0386325000 -3.7589659375 -5.6729021736
34 1 -4.4634806250 -3.7758703125 -4.8910896640
35 1 -4.4835025000 -3.2609050000 -4.0151847600
36 1 -3.8965659375 -3.7370896875 -5.6985600856
37 1 -3.3591734375 -3.7341334375 -4.8661700160
38 1 -3.3217365625 -3.1691403125 -4.0563980240
39 1 -2.7883350000 -3.6397887500 -5.6738619168
40 1 -6.2058258438 -6.3877145000 -3.2409271520
41 1 -5.0435237500 -6.5400809688 -3.2566379280
42 1 -3.8725396875 -6.5919989000 -3.2721932800
43 1 -2.8174809375 -6.4223389063 -3.2103215760
44 1 -6.1556757500 -5.2470346875 -3.2732553440
45 1 -6.1149493750 -5.8159408125 -2.4734304880
46 1 -5.0193765625 -5.4032886250 -3.2653546240
47 1 -5.0443434375 -5.9810581250 -2.4616571200
48 1 -3.9160234375 -5.5018580625 -3.2421446400
49 1 -3.9531646875 -6.0504466875 -2.4205733760
50 1 -2.7522821875 -5.3546556250 -3.2649013040
51 1 -2.8149546875 -5.8677007188 -2.3796450560
52 1 -6.1291380313 -4.1601156250 -3.2806768400
53 1 -6.1867459375 -4.6985159375 -2.4372685040
54 1 -5.0486434375 -4.3332175000 -3.2217840960
55 1 -5.0593934375 -4.8869903125 -2.3944103360
56 1 -3.9481390625 -4.3247518750 -3.2067468240
57 1 -3.8888931250 -4.9222100000 -2.4787667120
58 1 -2.8104128125 -4.2105868750 -3.2576870400
59 1 -2.8072415625 -4.7774209375 -2.4681072160
60 1 -6.2004951875 -3.0548409375 -3.2056977120
61 1 -6.2031867188 -3.6215003125 -2.4229954000
62 1 -5.0665690625 -3.1698928125 -3.2594096560
63 1 -5.0529300000 -3.7321178125 -2.4730548800
64 1 -3.8837868750 -3.1788421875 -3.2673751360
65 1 -3.9404125000 -3.7324000000 -2.4530440400
66 1 -2.7806084375 -3.0520459375 -3.1990533360
67 1 -2.7833900000 -3.6501759375 -2.4556992000
68 1 -2.2652265625 -6.3876500000 -4.0861099120
69 1 -2.2454062500 -5.8146293125 -4.8627895440
70 1 -2.2585884375 -4.0705143750 -4.0237071760
71 1 -6.7111901431 -2.3376681250 -4.9251275200
72 1 -6.1491316875 -2.4891087500 -5.6787551824
73 1 -5.5717962188 -2.5597900000 -4.8735785600
74 1 -5.0242275000 -2.6015940625 -5.6913212128
75 1 -4.4836771875 -2.7098062500 -4.8253323600
76 1 -3.9455859375 -2.5919056250 -5.6826239448
77 1 -3.3906843750 -2.6220728125 -4.8623621280
78 1 -2.8309318750 -2.5328746875 -5.6863321024
79 1 -6.1297709375 -2.4584981250 -2.4817327200
80 1 -5.0319003125 -2.6042009375 -2.4599992640
81 1 -3.9612943750 -2.6209440625 -2.4495210960
82 1 -2.8371131250 -2.4718415625 -2.4294843520
83 1 -2.2608190625 -2.4122193750 -4.8983945920
84 1 -2.2702118750 -4.6345668750 -4.8238946880
85 1 -2.2488865625 -2.9543956250 -4.0739997920
86 1 -5.0270762500 -6.5362163438 -6.4757417954
87 1 -3.9006509375 -5.4576742188 -6.4591187518
88 1 -5.0439806250 -4.3255850000 -6.4677562981
89 1 -3.9605418750 -3.1677831250 -6.4724484450
90 1 -1.6874275000 -6.2319550625 -6.4347270273
91 1 -1.1605968750 -6.1886285313 -4.0009116560
92 1 -0.5311575000 -6.7026999813 -5.6928728624
93 1 -0.0160175000 -6.5693733750 -4.8232729920
94 1 0.0093256250 -5.9961363438 -4.0440936240
95 1 0.5365056250 -6.4635355938 -5.6424584976
96 1 1.1396612500 -6.3774657188 -4.8832148480
97 1 1.1272853125 -5.8257125625 -4.0677828320
98 1 1.6854387500 -6.2785092813 -5.6888940080
99 1 -2.2122425000 -5.2344168750 -4.0988805840
100 1 -1.6940387500 -5.6694115938 -5.6289249528
101 1 -1.0689128125 -5.6678528438 -4.9064118800
102 1 -0.5805940625 -4.9423528125 -6.4517008823
103 1 -1.1236437500 -5.1125656250 -4.0931558000
104 1 -0.5199909375 -5.5275586250 -5.6998164296
105 1 0.0192156250 -5.4418394688 -4.8519357680
106 1 0.5263737500 -4.7921081250 -6.4547926542
107 1 -0.0401646875 -4.8797340625 -4.0117395280
108 1 0.5889118750 -5.3886820625 -5.6928197592
109 1 1.0968225000 -5.2186009375 -4.8319896880
110 1 1.1272718750 -4.6755109375 -4.0328383360
111 1 1.6506356250 -5.1064650000 -5.6623488840
112 1 -1.6993196875 -4.6004759375 -5.6598025208
113 1 -1.1454259375 -4.5150671875 -4.8489309040
114 1 -1.0945515625 -3.9389075000 -4.0861099120
115 1 -0.5787396875 -4.3932831250 -5.6195593616
116 1 0.0268078125 -4.3763787500 -4.8885122160
117 1 0.5423778125 -3.6241609375 -6.4616442622
118 1 -0.0239859375 -3.7993725000 -4.0668502880
119 1 0.5637031250 -4.2282706250 -5.7135572064
120 1 1.1014853125 -4.0646421875 -4.8316788400
121 1 1.0820546875 -3.5328531250 -4.1170522400
122 1 1.6640328125 -4.0540803125 -5.6529353704
123 1 -2.2205200000 -3.5373815625 -4.8685013760
124 1 -1.6717056250 -3.4881600000 -5.6944232168
125 1 -1.1239393750 -3.3496865625 -4.8348002720
126 1 -0.5355515625 -2.7519059375 -6.4545874946
127 1 -1.1425503125 -2.7825703125 -4.0359597680
128 1 -0.5771406250 -3.3188609375 -5.6743139416
129 1 0.0059662500 -3.2240728125 -4.8941333840
130 1 0.0215268750 -2.6751509375 -4.0374103920
131 1 0.6255559375 -3.1049896875 -5.5122131856
132 1 1.1223537500 -2.6454809375 -4.3144795760
133 1 1.6721759375 -2.4341225000 -6.4644923164
134 1 1.5991968750 -2.3913643750 -3.2690200400
135 1 1.5602818750 -2.9692171875 -5.5568483680
136 1 -1.7363937500 -6.2479645000 -3.2270426080
137 1 -0.5489890625 -6.1325807188 -3.2734107680
138 1 -0.6060312500 -6.6762721813 -2.4421773120
139 1 0.5811181250 -5.9428082813 -3.2464058480
140 1 0.5517840625 -6.4825590625 -2.4007179600
141 1 1.6697571875 -5.7408104063 -3.2253070400
142 1 1.7035121875 -6.3244480625 -2.4527072880
143 1 -1.6807625000 -5.1208834375 -3.2283119040
144 1 -1.6191918750 -5.6911346563 -2.4216354400
145 1 -0.6080334375 -4.9581956250 -3.2207997440
146 1 -0.5213346875 -5.5540184063 -2.4809944560
147 1 0.5587581250 -4.8169540625 -3.2813373920
148 1 0.5403621875 -5.3604068750 -2.4524871040
149 1 1.7129587500 -4.6043190625 -3.2836039920
150 1 1.6543712500 -5.1658184375 -2.4510753360
151 1 -1.6416459375 -4.0611618750 -3.2976310080
152 1 -1.7209943750 -4.5825503125 -2.3814971920
153 1 -0.5535578125 -3.8424128125 -3.2194009280
154 1 -0.5420418750 -4.4045975000 -2.4083466880
155 1 0.5425256250 -3.6711518750 -3.2148936320
156 1 0.5784575000 -4.2468950000 -2.4740780880
157 1 1.6406650000 -3.5235006250 -3.2543713280
158 1 1.6609556250 -4.0651259375 -2.4310126880
159 1 -1.6940387500 -2.9565053125 -3.2427015760
160 1 -1.6767715625 -3.5346403125 -2.4382787600
161 1 -0.5423778125 -2.7557221875 -3.2954680240
162 1 -0.6012743750 -3.2885728125 -2.4072069120
163 1 0.6264293750 -2.5287896875 -3.2875932080
164 1 0.5193728125 -3.0758168750 -2.4509328640
165 1 2.2330975000 -5.7495582188 -4.0151847600
166 1 2.1625371875 -2.9076465625 -4.8893022880
167 1 -1.6753337500 -2.3620303125 -5.6406037712
168 1 -1.6452337500 -2.3947371875 -2.4465809920
169 1 1.6984328125 -2.9613293750 -2.4484590320
170 1 2.1986975000 -5.1846846875 -4.8336345920
171 1 2.2126187500 -4.0004109375 -4.8099324320
172 1 2.2394400000 -3.4510725000 -4.0217643760
173 1 2.2021509375 -2.3506890625 -4.0210908720
174 1 -1.0716003125 -2.2615715625 -4.8893540960
175 1 -0.5939375000 -6.1179271250 -6.4521134035
176 1 1.6884218750 -5.6967098750 -6.4482020290
177 1 -1.6691928125 -2.9124168750 -6.4751577586
178 1 6.6912434375 -5.1975981250 -4.0382263680
179 1 6.6979084375 -6.3113035000 -4.0790640240
180 1 6.7071534375 -4.6312343750 -4.8417684480
181 1 6.6710065625 -3.4865206250 -4.8296842320
182 1 2.2435518750 -6.2806270313 -4.8757415440
183 1 2.8220093750 -6.2977517813 -5.7021063432
184 1 3.3143325000 -6.3827345625 -4.7889372400
185 1 3.3915846875 -5.7708445625 -4.0868999840
186 1 3.8651087500 -6.4524106875 -5.6421230408
187 1 4.4481350000 -6.4844510625 -4.8757285920
188 1 4.4904362500 -5.9319265938 -4.0533284000
189 1 5.0221178125 -6.6413405938 -5.6329841096
190 1 5.6264962500 -6.6787215688 -4.9196358720
191 1 5.5760653125 -6.1499701875 -4.0492873760
192 1 2.2842406250 -4.6121262500 -4.0836490320
193 1 2.7556415625 -5.2136962500 -5.6349748320
194 1 3.3543493750 -5.2126884375 -4.8715062400
195 1 3.8858831250 -4.7847846875 -6.4225398429
196 1 3.3753925000 -4.6489718750 -4.0591049920
197 1 3.9120862500 -5.3595334375 -5.6396815888
198 1 4.5163706250 -5.3824725938 -4.9044820320
199 1 4.4708443750 -4.8448906250 -4.0437957280
200 1 5.0898428125 -5.4683556875 -5.7010662976
201 1 5.6174125000 -5.5911085938 -4.8623232720
202 1 5.5761862500 -5.0248993750 -4.0616047280
203 1 6.1825668750 -5.6256120625 -5.6970408160
204 1 2.7283634375 -3.5350165625 -6.4303473085
205 1 2.7540559375 -4.1189431250 -5.6394678808
206 1 3.3544837500 -4.0929550000 -4.8996250320
207 1 3.3581118750 -3.5537081250 -4.0592215600
208 1 3.9203368750 -4.1813871875 -5.7022915568
209 1 4.4782753125 -4.3042462500 -4.8847690880
210 1 4.4365921875 -3.7355175000 -4.0699458160
211 1 5.0477296875 -4.3253028125 -5.6862440288
212 1 5.6071865625 -4.4610753125 -4.8619994720
213 1 5.5415712500 -3.9173403125 -4.0332268960
214 1 6.1533940625 -4.5172306250 -5.6754252232
215 1 2.7679100000 -2.3720278125 -6.4393173456
216 1 2.7494871875 -2.9641109375 -5.6876143504
217 1 3.2975221875 -2.9883521875 -4.8853648800
218 1 3.2940150000 -2.4542921875 -4.0492744240
219 1 3.8982725000 -3.0404225000 -5.6712702216
220 1 4.4608200000 -3.1791781250 -4.8809223440
221 1 4.4337165625 -2.6452928125 -4.0392366240
222 1 5.0286350000 -3.2149487500 -5.6802019208
223 1 5.5679490625 -3.3532609375 -4.8266016560
224 1 5.6122525000 -2.7622796875 -4.0790251680
225 1 6.1228909375 -3.4057881250 -5.6740445400
226 1 2.8305287500 -5.7512083438 -3.2667793440
227 1 2.7858893750 -6.2936278125 -2.4230860640
228 1 3.9277006250 -5.8950594688 -3.2356168320
229 1 3.8969287500 -6.4420194688 -2.4224384640
230 1 5.0523253125 -6.0356869375 -3.2121737120
231 1 5.0178581250 -6.6201652438 -2.4692858480
232 1 6.1514053125 -6.1890948125 -3.2392692960
233 1 2.8143500000 -4.6470100000 -3.2290631200
234 1 2.7702212500 -5.2067356250 -2.4186305760
235 1 3.9209684375 -4.7531528125 -3.2262395840
236 1 3.9025993750 -5.3159556250 -2.4423327360
237 1 5.0301400000 -4.9105865625 -3.2207349840
238 1 5.0337278125 -5.4726879375 -2.4195372160
239 1 6.1266265625 -5.0856503125 -3.2372746880
240 1 6.2027768750 -5.6347535938 -2.4124783760
241 1 2.7974725000 -3.5330143750 -3.2402795520
242 1 2.7736881250 -4.0783081250 -2.4222441840
243 1 3.8929915625 -3.6233412500 -3.2058013280
244 1 3.9226750000 -4.2011537500 -2.4206381360
245 1 4.9817784375 -3.7774962500 -3.2337258400
246 1 5.0953790625 -4.3420728125 -2.4350278080
247 1 6.1469709375 -3.9474940625 -3.3029413280
248 1 6.1961790625 -4.4981225000 -2.4743630320
249 1 2.7515700000 -2.3931784375 -3.2163572080
250 1 2.7701540625 -2.9638153125 -2.4373203120
251 1 3.8800915625 -2.4800518750 -3.2514571280
252 1 3.9321215625 -3.0420618750 -2.4531994640
253 1 5.0470712500 -2.6628825000 -3.3010632880
254 1 5.0475953125 -3.1939056250 -2.4571757280
255 1 6.1651250000 -2.8844937500 -3.2576352320
256 1 6.1059731250 -3.4231493750 -2.4106132880
257 1 6.0973462500 -2.3318631250 -5.6208131152
258 1 6.1378065625 -2.3342953125 -2.4236559520
259 1 4.9945171875 -6.0759470313 -6.4187253494
260 1 5.0004700000 -4.8991646875 -6.4709410654
261 1 3.8658612500 -3.6029431250 -6.4699654689
262 1 -5.6381868750 -2.0152353125 -4.0390552960
263 1 -4.4774959375 -2.1096740625 -4.0825610640
264 1 -3.3492028125 -2.0434809375 -4.0420601600
265 1 -6.1443210625 -1.3100890625 -5.7454812960
266 1 -5.6389555000 -1.4508603125 -4.8309923840
267 1 -5.5657560625 -0.8561971875 -4.0746214880
268 1 -5.0813637500 -1.5313375000 -5.6640119208
269 1 -4.5152284375 -1.5327484375 -4.8401494480
270 1 -4.4915112500 -0.9393215625 -4.0932594160
271 1 -3.9484750000 -1.4919387500 -5.5994993040
272 1 -3.3364506250 -1.5044221875 -4.8622326080
273 1 -3.3880371875 -0.9156446875 -4.0892442960
274 1 -2.8073356250 -1.3303393750 -5.6868178024
275 1 -6.6728124281 0.4334668750 -4.0938034000
276 1 -6.2081263438 -0.2085096875 -5.6572678144
277 1 -5.6242239688 -0.3124084375 -4.9058549440
278 1 -5.0579825000 0.1392796875 -6.4298170536
279 1 -5.6080882188 0.2428156250 -4.0789992640
280 1 -5.0369393750 -0.4459906250 -5.6586860584
281 1 -4.4757221875 -0.3459350000 -4.8749385200
282 1 -3.9357093750 0.1145143750 -6.4743983945
283 1 -4.4963487500 0.1614246875 -4.0055096160
284 1 -3.8829268750 -0.4159712500 -5.6415324296
285 1 -3.3586225000 -0.3111990625 -4.7701050320
286 1 -3.3490953125 0.3437043750 -4.0758648800
287 1 -2.8159759375 -0.2247959375 -5.5975590944
288 1 -6.7162907628 1.0007578125 -4.8869061680
289 1 -6.1271385313 0.8797262500 -5.6225564544
290 1 -5.5407488750 0.8124581250 -4.8695375360
291 1 -5.5871337813 1.3366550000 -4.0092397920
292 1 -5.0090028125 0.7452840625 -5.7241700752
293 1 -4.4885684375 0.6993009375 -4.8783448960
294 1 -4.3558462500 1.2655975000 -4.0376435280
295 1 -3.8943621875 0.6888465625 -5.6891841328
296 1 -3.3767496875 0.8704543750 -4.7771897760
297 1 -2.7845456250 1.3797087500 -6.4116772595
298 1 -2.8848968750 1.3759193750 -3.3672998160
299 1 -2.8164328125 0.7874240625 -5.6692069680
300 1 -6.1884283125 -1.8743968750 -3.2435305040
301 1 -5.0430131250 -2.0502400000 -3.2843940640
302 1 -3.9293131250 -2.0603718750 -3.2655877600
303 1 -2.7836721875 -1.9266821875 -3.2584512080
304 1 -6.1187884688 -0.7613821875 -3.2843163520
305 1 -6.1749491563 -1.3072000000 -2.4524352960
306 1 -5.0211771875 -0.9878443750 -3.2220819920
307 1 -5.0634381250 -1.5211518750 -2.3933612240
308 1 -3.9472387500 -0.9714371875 -3.2466389840
309 1 -3.9135643750 -1.5138015625 -2.4272825120
310 1 -2.8457534375 -0.7627125000 -3.2739418000
311 1 -2.8252343750 -1.3461150000 -2.4863436320
312 1 -6.1574118750 0.3276465625 -3.2072260480
313 1 -6.1951524375 -0.2412568750 -2.4061837040
314 1 -5.0620003125 0.1613440625 -3.2303712720
315 1 -5.0350715625 -0.4053959375 -2.4380585760
316 1 -3.9111321875 0.0950703125 -3.2398650880
317 1 -3.9098153125 -0.4028293750 -2.3949025120
318 1 -2.7532228125 -0.2358415625 -2.4084762080
319 1 -6.1846389375 1.4612743750 -3.2548764560
320 1 -6.1178720313 0.8980550000 -2.4448842800
321 1 -4.9853259375 1.3061384375 -3.2925926800
322 1 -4.9942350000 0.7385250000 -2.4762022160
323 1 -3.8216250000 1.2655303125 -3.3220325760
324 1 -3.9103796875 0.7010612500 -2.4657758560
325 1 -2.8192009375 0.2989306250 -3.2193879760
326 1 -2.7730700000 0.8870900000 -2.3960552400
327 1 -2.2515203125 -1.3081406250 -4.8714155760
328 1 -2.2436459375 -0.7600518750 -4.0049008720
329 1 -2.2397759375 0.9467256250 -4.8543448400
330 1 -6.6329134000 2.1144578125 -4.8529071680
331 1 -6.1040636563 2.0122925000 -5.7151515976
332 1 -5.5917079063 1.9150184375 -4.7969415760
333 1 -5.0629006250 1.8684575000 -5.7119900144
334 1 -4.5350084375 1.7911246875 -4.8798861840
335 1 -3.9293265625 1.8409375000 -5.6390728448
336 1 -3.3433843750 1.7919578125 -4.8035859520
337 1 -2.8124821875 1.9728803125 -5.6836782376
338 1 -6.1224730313 2.0132868750 -2.4533937440
339 1 -5.0510890625 1.8402521875 -2.4694412720
340 1 -3.9130671875 1.7887059375 -2.4483295120
341 1 -2.7419487500 1.9075203125 -2.4549479840
342 1 -2.2462931250 0.3558653125 -4.0940883440
343 1 -2.3246740625 1.5068140625 -4.0512560800
344 1 -6.6814786750 -1.2638371875 -4.8717782320
345 1 -6.2087565625 -1.9197887500 -6.4536419986
346 1 -2.8223184375 -1.9354568750 -6.4196455890
347 1 -6.2227759063 1.4248856250 -6.4559821659
348 1 -3.9043059375 1.2800428125 -6.4457186126
349 1 -2.2156421875 -1.8626121875 -4.0487822480
350 1 -2.2169725000 2.0608018750 -4.9069170080
351 1 1.6820793750 -1.8533940625 -2.4192911280
352 1 -1.7529487500 0.4823928125 -3.2265374800
353 1 -1.1458021875 -1.6937834375 -4.0897753280
354 1 -0.5285640625 -2.1623087500 -5.6990237672
355 1 -0.6008309375 -1.6185334375 -3.2287522720
356 1 0.0063156250 -2.1012756250 -4.8501354400
357 1 -0.0466684375 -1.5428131250 -4.0565016400
358 1 0.5623862500 -2.0332953125 -5.7066408384
359 1 1.0963253125 -1.9362228125 -4.8190765440
360 1 1.1391103125 -1.3713640625 -4.0698681040
361 1 1.6515225000 -1.8415018750 -5.6921345984
362 1 -1.6838800000 -1.2527109375 -5.7126764704
363 1 -1.1579362500 -1.1217221875 -4.8740318800
364 1 -1.0739384375 -0.5721821875 -4.0388351120
365 1 -0.5765359375 -1.0711031250 -5.6647242808
366 1 -0.0028890625 -0.9895643750 -4.8684625200
367 1 0.0036550000 -0.4000881250 -4.1052788720
368 1 0.5497012500 -0.9238012500 -5.6719268880
369 1 1.1214265625 -0.8058334375 -4.8724905920
370 1 1.6813134375 -0.1621771875 -6.4649978588
371 1 1.0758465625 -0.2598812500 -4.0474870480
372 1 1.6719071875 -0.7295353125 -5.6914623896
373 1 -2.2014253125 -0.2257634375 -4.8538526640
374 1 -1.6820121875 -0.0774806250 -5.7102078192
375 1 -1.1179059375 -0.0327203125 -4.8827485760
376 1 -0.5731900000 0.6361312500 -6.4359529341
377 1 -1.1579093750 0.5098187500 -3.9984896320
378 1 -0.5535981250 0.0251684375 -5.7115910928
379 1 -0.0211103125 0.1830725000 -4.8834868400
380 1 0.5490965625 0.7475550000 -6.4755741188
381 1 0.0090434375 0.7027409375 -4.0142910720
382 1 0.5667668750 0.1892671875 -5.6578908056
383 1 1.1224478125 0.3119650000 -4.8592018400
384 1 1.6830468750 0.4174896875 -5.6910492208
385 1 1.1144121875 0.8847115625 -4.0536910560
386 1 -1.6859628125 1.0218546875 -5.6215487888
387 1 -1.0817725000 1.0322687500 -4.8435946800
388 1 -1.1886812500 1.6210462500 -4.1008363360
389 1 -0.5752056250 1.2236053125 -5.6946822568
390 1 -0.0065978125 1.2594162500 -4.8718041360
391 1 -0.0255850000 1.7669103125 -3.9689461200
392 1 0.5474034375 1.3237818750 -5.7103192064
393 1 1.0707403125 1.4429859375 -4.8540469440
394 1 1.6631459375 1.4764990625 -5.6208998936
395 1 -1.6638850000 -1.8104343750 -3.1957117200
396 1 -0.5516900000 -1.0828340625 -2.3975576720
397 1 -0.5128825000 -2.2144731250 -2.4684439680
398 1 0.5474437500 -1.4842525000 -3.3248949680
399 1 0.5047662500 -1.9843559375 -2.4115717360
400 1 1.6668278125 -1.2848131250 -3.2218747600
401 1 -1.7554750000 -1.2186737500 -2.4456225440
402 1 -0.5170481250 -0.5192115625 -3.2093372240
403 1 -0.6136234375 0.0527825000 -2.4264794880
404 1 0.5287790625 -0.3681068750 -3.2173415600
405 1 1.6628771875 -0.1299675000 -3.2789283200
406 1 -1.6406381250 1.0359103125 -2.4193299840
407 1 -1.6452875000 -0.6752612500 -3.2740065600
408 1 -0.5662025000 0.6052653125 -3.2562882240
409 1 -1.6570721875 -0.1186665625 -2.4776528400
410 1 0.4890578125 1.3822887500 -2.5064839920
411 1 0.5968534375 0.7851128125 -3.2201391920
412 1 1.7146653125 0.9454087500 -3.2704318080
413 1 1.6702946875 0.3840840625 -2.4069996800
414 1 -1.7202015625 1.5605103125 -3.2535424000
415 1 -0.5469868750 1.1927662500 -2.5046318560
416 1 0.5906453125 1.9745465625 -3.2668052480
417 1 1.1655150000 1.9939100000 -4.0396122320
418 1 1.5912956250 1.4304621875 -2.3490783360
419 1 2.2292409375 -0.1981628125 -4.0494816560
420 1 1.6792709375 2.0079521875 -3.1462221280
421 1 2.2154271875 2.1659503125 -4.0474740960
422 1 -1.6333953125 2.0882546875 -5.6792240448
423 1 -1.1053418750 2.2154675000 -4.8095697760
424 1 -1.6815687500 2.1284596875 -2.4196667360
425 1 0.5960068750 -0.9420896875 -2.4264794880
426 1 0.5435334375 0.2186281250 -2.4521114960
427 1 1.6654437500 -0.7021093750 -2.4820694720
428 1 -0.6448925000 1.7791653125 -3.2497733680
429 1 2.2049728125 0.4012303125 -4.8062670160
430 1 2.2257337500 -1.2954018750 -4.0629905920
431 1 2.2332050000 -0.7158828125 -4.8888748720
432 1 -1.7077584375 -0.6546615625 -6.4478436472
433 1 0.5677881250 1.9299475000 -6.4289317844
434 1 4.9880134375 -2.1360115625 -2.3950708880
435 1 6.7057693750 -0.7305565625 -4.0172441280
436 1 6.6821865625 1.5442375000 -4.0649463440
437 1 2.2448553125 -1.8146806250 -4.9116444880
438 1 2.2469112500 1.5961331250 -4.8419238720
439 1 6.6620571875 -1.8200153125 -4.0340817280
440 1 6.6772684375 -0.1651065625 -4.8129243440
441 1 2.8027668750 -1.7923475000 -5.6938623952
442 1 3.3539193750 -1.8932093750 -4.8706255040
443 1 3.3306590625 -1.3492056250 -4.0416716000
444 1 3.9108903125 -1.9187943750 -5.6908808448
445 1 4.4359875000 -2.0686090625 -4.8121213200
446 1 4.5025837500 -1.4721587500 -4.0830661920
447 1 4.9846675000 -2.1136650000 -5.6673613080
448 1 5.5403887500 -2.1854750000 -4.8414576000
449 1 5.6146846875 -1.5906237500 -4.0911223360
450 1 2.8194831250 -0.1016546875 -3.2854431760
451 1 2.8023368750 -0.6567712500 -5.6853879016
452 1 3.3359937500 -0.7733550000 -4.8238817360
453 1 3.3739546875 -0.1722687500 -4.0963938000
454 1 3.8842437500 -0.8337565625 -5.6599113176
455 1 4.4568290625 -0.8955421875 -4.8462239360
456 1 4.4696618750 -0.3060928125 -4.0771859840
457 1 5.0095134375 -1.0428575000 -5.6262684976
458 1 5.6349215625 -1.0473321875 -4.9249720960
459 1 5.5382521875 -0.5383734375 -4.0113768720
460 1 6.1965821875 -1.1911134375 -5.6897617920
461 1 2.2489403125 1.0150284375 -4.1024294320
462 1 2.7557490625 0.4178659375 -5.6465228352
463 1 3.3357384375 0.4153128125 -4.8573885600
464 1 3.3668865625 0.9668281250 -4.0571751440
465 1 3.8969825000 0.2376018750 -5.6303729864
466 1 4.5183593750 0.2326031250 -4.9195711120
467 1 4.9968284375 0.6733396875 -6.4746411280
468 1 4.4370490625 0.7390490625 -4.0006137600
469 1 5.0854218750 0.1071640625 -5.7004536680
470 1 5.6274368750 0.0100646875 -4.8530366880
471 1 5.6065953125 0.5572800000 -4.0317633200
472 1 6.1822309375 -0.0147678125 -5.7308779160
473 1 2.7572943750 2.0556553125 -6.4577097037
474 1 2.7916271875 1.5052015625 -5.6383345808
475 1 3.4099671875 1.5173893750 -4.9073444240
476 1 3.9030831250 1.9883468750 -6.4634960874
477 1 3.3074390625 2.0160415625 -3.9897470320
478 1 3.9556371875 1.4013431250 -5.7157901312
479 1 4.4975581250 1.2849206250 -4.8483092080
480 1 4.4900868750 1.8405612500 -4.0296521440
481 1 5.0483478125 1.2671159375 -5.7193713592
482 1 5.5623053125 1.1236840625 -4.8202940320
483 1 5.6237953125 1.7235340625 -4.0969766400
484 1 6.1220040625 1.0665209375 -5.6304973256
485 1 2.7774506250 -1.2081925000 -3.2365493760
486 1 2.8251134375 -1.8005981250 -2.4959928720
487 1 3.9301193750 -1.3727346875 -3.3053374480
488 1 3.9209415625 -1.9050075000 -2.4506220160
489 1 5.0455796875 -1.6106859375 -3.2549800720
490 1 6.1195584375 -1.7618981250 -3.1921240160
491 1 2.7623200000 0.4056915625 -2.3720551840
492 1 2.7792915625 -0.6431725000 -2.4417887520
493 1 3.9032309375 -0.3245156250 -3.2340625920
494 1 3.8736146875 -0.8625934375 -2.3744254000
495 1 4.9906068750 -0.4671009375 -3.1915929840
496 1 5.0212309375 -1.0448865625 -2.4383176160
497 1 6.1458287500 -0.5610559375 -3.2600961120
498 1 6.1698550000 -1.1429131250 -2.4993085840
499 1 2.7590546875 2.0718206250 -3.1845082400
500 1 2.7863328125 0.9450056250 -3.2461856640
501 1 3.8966196875 0.8368337500 -3.1786021280
502 1 3.9109171875 0.2463900000 -2.4443921040
503 1 5.0507800000 0.7245096875 -3.2556276720
504 1 5.0599846875 0.1507284375 -2.4957208800
505 1 6.2023200000 0.5359412500 -3.2748872960
506 1 6.1367450000 -0.0078475000 -2.4374368800
507 1 3.9345940625 2.0267646875 -3.2540604800
508 1 3.8912984375 1.4578075000 -2.4805281840
509 1 5.0701434375 1.8053012500 -3.2440356320
510 1 4.9918028125 1.2668203125 -2.4063650320
511 1 6.1332512500 1.6069906250 -3.1914505120
512 1 6.1530850000 1.0560396875 -2.3811474880
513 1 6.2123712500 2.1750340625 -5.6254564072
514 1 6.2169803125 2.1907828125 -2.4479927600
515 1 2.7697106250 1.4796837500 -2.4162474080
516 1 6.1260621875 -1.7804821875 -6.4468017883
517 1 4.9979437500 -0.4870690625 -6.4403195714
518 1 6.1008131250 -0.6236343750 -6.4631264114
519 1 3.8871596875 0.8044896875 -6.4386159948
520 1 6.1667912500 1.6233575000 -6.4559629970
521 1 -3.3375928125 2.2857456250 -4.0641303680
522 1 -6.6896355063 6.5432965625 -4.8492028960
523 1 -6.1378401563 6.5080903125 -5.7093244928
524 1 -5.5937262188 6.4169975000 -4.8646675840
525 1 -5.0433087500 6.3259853125 -5.6962908952
526 1 -4.4900062500 6.3107337500 -4.8742650160
527 1 -3.9102587500 6.3019187500 -5.6478879760
528 1 -3.3455881250 6.3230290625 -4.8428693680
529 1 -2.7968275000 6.4684631250 -5.6368748904
530 1 -6.1237536250 6.4896943750 -2.4148744960
531 1 -5.0192153125 6.3242921875 -2.4837143760
532 1 -3.9289234375 6.3164446875 -2.4049403120
533 1 -2.7610703125 6.4357293750 -2.4108723280
534 1 -5.5283689063 2.4941881250 -4.0191351200
535 1 -4.4118268750 2.3603775000 -4.0692075520
536 1 -2.7789556250 2.5440412500 -6.4462523645
537 1 -6.6509027188 3.8107137500 -4.0543127520
538 1 -6.1933209063 3.1243262500 -5.6916346512
539 1 -5.6331249688 3.0343084375 -4.8638257040
540 1 -5.0421800000 3.5445840625 -6.4358200466
541 1 -5.5657197813 3.6066384375 -4.0667596240
542 1 -5.0678456250 2.9755731250 -5.6521271656
543 1 -4.4868350000 2.9217693750 -4.8812979520
544 1 -3.9378190625 3.4449853125 -6.4669959121
545 1 -4.4807746875 3.4600890625 -4.0424616720
546 1 -3.8891215625 2.9004306250 -5.6279859328
547 1 -3.3504928125 2.9479321875 -4.7861137040
548 1 -3.3173559375 3.5269943750 -4.0787920320
549 1 -2.8341568750 3.1084431250 -5.6387360928
550 1 -6.6681727281 4.9173053125 -4.0481476000
551 1 -6.2047589063 4.2268865625 -5.6257413512
552 1 -5.5934601563 4.1500509375 -4.9159704560
553 1 -5.6027306875 4.6985293750 -4.0874051120
554 1 -5.0023378125 4.1257962500 -5.6493955888
555 1 -4.4279921875 4.0203118750 -4.8578936880
556 1 -3.9366096875 4.6307640625 -6.4444826032
557 1 -4.4968728125 4.5964984375 -4.0853457440
558 1 -3.8894843750 4.0231875000 -5.7050438568
559 1 -3.3621028125 4.1408865625 -4.8527387920
560 1 -2.8241862500 4.7158503125 -6.4689966075
561 1 -3.3612831250 4.6721515625 -3.9947206000
562 1 -2.7803934375 4.1441518750 -5.6743372552
563 1 -6.1205635625 5.3791656250 -5.6886012928
564 1 -5.5912873125 5.2837056250 -4.8509514160
565 1 -5.5920922188 5.8568553125 -4.0688189920
566 1 -5.0275465625 5.2251046875 -5.6713090776
567 1 -4.4587237500 5.1703065625 -4.8570259040
568 1 -4.4787053125 5.7384843750 -4.0688837520
569 1 -3.9100571875 5.1941715625 -5.6585578336
570 1 -3.3153806250 5.1947359375 -4.8828133360
571 1 -3.3940975000 5.7515993750 -4.0670963760
572 1 -2.7695493750 5.3008250000 -5.7096638352
573 1 -6.1352695625 2.5626790625 -3.3112694640
574 1 -4.9475396875 2.4194353125 -3.2345547680
575 1 -3.8565356250 2.4139125000 -3.1855832560
576 1 -2.7904446875 2.5458418750 -3.2064748320
577 1 -6.1230199375 3.6657231250 -3.2129637840
578 1 -6.1927874375 3.0835165625 -2.4447547600
579 1 -5.0200618750 3.5730178125 -3.2198283440
580 1 -5.0726428125 2.9843612500 -2.4600769760
581 1 -3.8800512500 3.4797750000 -3.2837335120
582 1 -3.9494156250 2.9701578125 -2.3946823280
583 1 -2.7835781250 3.6455668750 -3.2181316320
584 1 -2.7569315625 3.0657656250 -2.4144600320
585 1 -6.1158429688 4.8261721875 -3.2028353200
586 1 -6.1724632188 4.2437103125 -2.4549868400
587 1 -5.0459290625 4.6726353125 -3.2505893440
588 1 -5.0138268750 4.1105581250 -2.4030622720
589 1 -3.9567390625 4.6026125000 -3.2606660000
590 1 -3.9091434375 4.0338703125 -2.4492491040
591 1 -2.7460203125 4.7563375000 -3.2830600080
592 1 -2.8440065625 4.2182193750 -2.4456743520
593 1 -6.1547001875 5.9466043750 -3.2575834240
594 1 -6.1742974375 5.4072096875 -2.4223089440
595 1 -5.0452437500 5.7329750000 -3.2430124240
596 1 -5.0122681250 5.2001378125 -2.3779872000
597 1 -3.9412187500 5.7506318750 -3.2199060560
598 1 -3.8507978125 5.1641387500 -2.4655427200
599 1 -2.8422596875 5.9138706250 -3.2584382560
600 1 -2.7789959375 5.3199465625 -2.4880273920
601 1 -2.2465887500 4.2681531250 -4.8281429440
602 1 -2.2456884375 5.4237378125 -4.8491251840
603 1 -2.2561428125 5.9746618750 -3.9959510400
604 1 -6.7049897313 5.4644937500 -4.9223946480
605 1 -6.1618207188 4.7791678125 -6.4352478272
606 1 -2.8086659375 5.9000434375 -6.4330994790
607 1 -2.2275746875 3.7015071875 -4.0915368000
608 1 -2.1825456250 6.4793071875 -4.8881107040
609 1 -1.6397378125 6.6105243750 -5.7038768816
610 1 -1.1043206250 6.7118968750 -4.8549147280
611 1 -1.6704021875 6.5931362500 -2.4927548720
612 1 1.1100181250 2.5485159375 -4.8659886880
613 1 -1.6803996875 2.6644009375 -6.4345105994
614 1 -2.2128606250 2.6172353125 -3.9982305920
615 1 -0.5362100000 3.9501009375 -6.4270668259
616 1 -1.0821084375 2.8235681250 -4.0835713200
617 1 -0.5554525000 2.3107259375 -5.6310918224
618 1 0.0251281250 2.3226718750 -4.8000889120
619 1 0.0156412500 2.9544090625 -4.1079210800
620 1 0.5300825000 2.5034465625 -5.6751959728
621 1 1.6725925000 2.5900243750 -5.6595538424
622 1 1.6591818750 3.1708468750 -6.4237796083
623 1 1.1769234375 3.6626190625 -4.8624398400
624 1 -2.2239734375 3.0864728125 -4.8728532480
625 1 -1.6985268750 3.2623562500 -5.7045788800
626 1 -1.1401718750 3.3602753125 -4.9092354160
627 1 -1.1244096875 3.8850500000 -4.0052376240
628 1 -0.5318831250 3.3562843750 -5.6668056672
629 1 0.0165146875 4.0967443750 -4.0551028240
630 1 -0.0056437500 3.5363468750 -4.8485941520
631 1 0.5900137500 3.5968156250 -5.6161568712
632 1 1.1240334375 4.2267521875 -4.0660343120
633 1 1.7111043750 3.7933928125 -5.7158756144
634 1 -2.1922743750 4.8627893750 -4.0633921040