ITEM: TIMESTEP
39000
ITEM: NUMBER OF ATOMS
2304
ITEM: BOX BOUNDS pp pp pp
-6.7187500000 6.7187500000
-6.7187500000 6.7187500000
-6.4760000000 6.4760000000
ITEM: ATOMS id type x y z
1 1 -6.2078858125 -6.3159219688 -6.4677107200
2 1 -5.6620868125 -6.4807208125 -4.0674072240
3 1 -4.4934328125 -6.5490410938 -4.0537817200
4 1 -2.7674396875 -6.5003865938 -6.4710844311
5 1 -3.3336153125 -6.5450877813 -4.0579522640
6 1 -6.1445468125 -5.7363505000 -5.6805930712
7 1 -5.6070723438 -5.8925117188 -4.8145562960
8 1 -5.6112554375 -5.3093309375 -4.0632884880
9 1 -5.0674425000 -5.9621690313 -5.6740885768
10 1 -4.5059834375 -5.9982944063 -4.8616238640
11 1 -4.4788665625 -5.4348734688 -4.0355841600
12 1 -3.9389881250 -6.1051641875 -5.6761557160
13 1 -3.4129503125 -5.9691108438 -4.8335439280
14 1 -3.3666312500 -5.3976717500 -4.0415679840
15 1 -2.8570946875 -5.9384222813 -5.6630159120
16 1 -6.7099053972 -4.0127331250 -4.0490930960
17 1 -6.2043719063 -4.6680531250 -5.6617051696
18 1 -5.6470112813 -4.7377265625 -4.8380900800
19 1 -5.5759309375 -4.1637034375 -4.0773673120
20 1 -5.0816728125 -4.8518512500 -5.6384718720
21 1 -4.4816750000 -4.8980493750 -4.8958041920
22 1 -3.9390418750 -4.3578618750 -6.4250601726
23 1 -4.4914037500 -4.3591250000 -4.0697644880
24 1 -3.9174746875 -4.9514768750 -5.6941939664
25 1 -3.3661206250 -4.8415312500 -4.8807151120
26 1 -2.8218078125 -4.2712840625 -6.4511176538
27 1 -3.3925118750 -4.3151978125 -4.0082554400
28 1 -2.7909150000 -4.8610021875 -5.6806902112
29 1 -6.1774928750 -3.0463081250 -6.4635938232
30 1 -6.1941190938 -3.5891293750 -5.6313275488
31 1 -5.6203915938 -3.5873556250 -4.8679703440
32 1 -5.5988445625 -3.0318225000 -4.0632625840
33 1 -5.0603609375 -3.7561440625 -5.6687471720
34 1 -4.4787053125 -3.7831668750 -4.8759099200
35 1 -3.9450484375 -3.1956793750 -6.4737965280
36 1 -4.5055265625 -3.2408831250 -4.0607498960
37 1 -3.9220031250 -3.7656981250 -5.6835836880
38 1 -3.3544568750 -3.7715568750 -4.8811036720
39 1 -2.8260137500 -3.1102437500 -6.4520830958
40 1 -3.3970000000 -3.2322025000 -4.0361151920
41 1 -2.7817775000 -3.7009293750 -5.6841108344
42 1 -6.1759072500 -6.2850305000 -3.2139999440
43 1 -5.0693909375 -6.5244746563 -3.2915565200
44 1 -3.9157009375 -6.6259340969 -3.2795629680
45 1 -2.7950134375 -6.4863229063 -3.2355002640
46 1 -6.1998864688 -5.2041018750 -3.3010244320
47 1 -6.1348005938 -5.7267305938 -2.4050698320
48 1 -5.0571628125 -5.4171090938 -3.2658597520
49 1 -5.0416290625 -5.9681621563 -2.4456614000
50 1 -3.9083640625 -5.5005290938 -3.2269260400
51 1 -3.9650300000 -6.0804203750 -2.4566187920
52 1 -2.7820731250 -5.4006387500 -3.2457582480
53 1 -2.8284862500 -5.9498858125 -2.4075048080
54 1 -6.1377904375 -4.1213753125 -3.2679320720
55 1 -6.1732479688 -4.6636187500 -2.4363230080
56 1 -5.0364153125 -4.2935634375 -3.2196211120
57 1 -5.0848440625 -4.8671162500 -2.4393149200
58 1 -3.9623021875 -4.3330293750 -3.2104510960
59 1 -3.9516731250 -4.9307831250 -2.4520855920
60 1 -2.8127778125 -4.2677768750 -3.2220301840
61 1 -2.8228425000 -4.8325281250 -2.4445604800
62 1 -6.1431573750 -3.0066809375 -3.2354484560
63 1 -6.2253035000 -3.5586262500 -2.4357790240
64 1 -5.0610596875 -3.2060800000 -3.2089227600
65 1 -5.0813503125 -3.7348321875 -2.3811474880
66 1 -3.9723803125 -3.2056231250 -3.2264986240
67 1 -3.8843646875 -3.7713687500 -2.4222053280
68 1 -2.8493546875 -3.0738415625 -3.2275995440
69 1 -2.7881737500 -3.6583862500 -2.4803339040
70 1 -2.2943725000 -5.8476801875 -4.8412374160
71 1 -2.2746059375 -4.6672871875 -4.8052438080
72 1 -2.2517084375 -3.5316303125 -4.8605099920
73 1 -2.2473278125 -3.0102015625 -3.9847216560
74 1 -6.1875051563 -2.4767731250 -5.6757321856
75 1 -5.5931269063 -2.4772031250 -4.8950270720
76 1 -5.0357434375 -2.5984093750 -5.6899845664
77 1 -4.4741903125 -2.6811440625 -4.8866859840
78 1 -3.8860040625 -2.6446343750 -5.6439777672
79 1 -3.3298528125 -2.6651668750 -4.8270161200
80 1 -2.7969350000 -2.5383168750 -5.6930101536
81 1 -6.1848982813 -2.4555284375 -2.3958091520
82 1 -5.0094462500 -2.6060284375 -2.4517876960
83 1 -3.8921853125 -2.6487865625 -2.4199516800
84 1 -2.7692940625 -2.4900225000 -2.4172058560
85 1 -2.2723618750 -4.0869753125 -4.0283569440
86 1 -6.7084837769 -5.7523881563 -4.8639552240
87 1 -6.6917528531 -2.8822228125 -4.0937904480
88 1 -3.9539709375 -5.5308467813 -6.4593465774
89 1 -5.0561281250 -3.1799171875 -6.4442647506
90 1 -2.2282734375 -6.4197884688 -4.0622264240
91 1 -2.2328421875 -5.2668684375 -4.0738443680
92 1 -1.1544962500 -6.2221537500 -4.0714223440
93 1 0.0024053125 -6.6582113750 -4.8257727280
94 1 -0.0428118750 -6.0802591250 -4.0512301760
95 1 0.5105981250 -6.5020367188 -5.7113981080
96 1 1.0751612500 -6.4004021875 -4.8751328000
97 1 1.6938506250 -5.8075477500 -6.4370530770
98 1 1.0947934375 -5.8726887188 -3.9831415120
99 1 1.6370771875 -6.3928395625 -5.6754446512
100 1 -1.7342706250 -5.7242567500 -5.6315956552
101 1 -1.1310746875 -5.6774808125 -4.9070594800
102 1 -0.5863318750 -4.9826250000 -6.4159414465
103 1 -1.1015659375 -5.1227378125 -4.0748546240
104 1 -0.5364787500 -5.5493663438 -5.6249383272
105 1 0.0381625000 -5.5152256875 -4.8564301120
106 1 -0.0303687500 -4.9471231250 -4.0815119520
107 1 0.5864662500 -5.3835623750 -5.6801630648
108 1 1.1510428125 -5.3353190625 -4.8384009280
109 1 1.0421990625 -4.7741556250 -4.0330973760
110 1 1.6632803125 -5.2057681250 -5.7250236120
111 1 -1.7315562500 -4.6303340625 -5.6530104920
112 1 -1.1736850000 -4.5368896875 -4.8241148720
113 1 -1.1282796875 -3.9465400000 -4.0541314240
114 1 -0.6287271875 -4.3979056250 -5.6460060504
115 1 -0.0386462500 -4.3812565625 -4.9012310800
116 1 0.5685675000 -3.7152671875 -6.4295374199
117 1 0.0236903125 -3.8401150000 -4.0622264240
118 1 0.5633134375 -4.2713781250 -5.6273098384
119 1 1.1465412500 -4.2276256250 -4.8700426640
120 1 1.1050193750 -3.6503640625 -4.0806700720
121 1 1.6996556250 -4.1004128125 -5.6855744104
122 1 -1.6781690625 -3.5555221875 -5.6685243976
123 1 -1.1482343750 -3.3742503125 -4.8158903520
124 1 -1.1470653125 -2.8166075000 -3.9873897680
125 1 -0.6049293750 -3.3064446875 -5.6874382032
126 1 0.4752440625 -3.1414859375 -5.6533964616
127 1 -0.0654809375 -3.2523587500 -4.8153593200
128 1 1.0623821875 -3.0922375000 -4.8729827680
129 1 1.1425906250 -2.5099771875 -4.0777688240
130 1 1.6932996875 -2.4202684375 -6.4220352330
131 1 1.6884487500 -2.4161834375 -3.2138833760
132 1 1.6486200000 -2.9962400000 -5.6158304808
133 1 -1.6893490625 -6.3016715000 -3.2228332080
134 1 -0.5989900000 -6.0951814688 -3.2315110480
135 1 0.4927665625 -5.9394798125 -3.2264209120
136 1 0.5601018750 -6.5286631250 -2.4731973520
137 1 1.6820793750 -5.7994906250 -3.2293221600
138 1 1.6380984375 -6.3754689063 -2.4490418720
139 1 -1.6855865625 -5.1846712500 -3.2625310880
140 1 -1.6887040625 -5.7397394375 -2.4216613440
141 1 -0.5755818750 -4.9813753125 -3.2249184800
142 1 -0.5931312500 -5.5211798438 -2.4011324240
143 1 0.4997943750 -4.8169943750 -3.1986259200
144 1 0.5776243750 -5.3811207813 -2.4187082880
145 1 1.6144753125 -4.6302265625 -3.2452401680
146 1 1.6801578125 -5.2139918750 -2.4902033280
147 1 -1.6741243750 -4.1223562500 -3.2590729040
148 1 -1.6986343750 -4.6556503125 -2.3967546480
149 1 -0.5546462500 -3.8935021875 -3.2763379200
150 1 -0.5910350000 -4.4167584375 -2.3913925200
151 1 0.5616606250 -3.6788381250 -3.2316923760
152 1 0.5314800000 -4.2306221875 -2.4177627920
153 1 1.6465506250 -3.5170371875 -3.2264727200
154 1 1.6784781250 -4.0801087500 -2.4260391200
155 1 -1.6935146875 -2.9552825000 -3.1677483520
156 1 -1.7053396875 -3.5548234375 -2.4532383200
157 1 -0.0053346875 -2.6663762500 -4.0541573280
158 1 -0.6066225000 -3.3655965625 -2.4282409600
159 1 0.5812928125 -2.6063912500 -3.2739677040
160 1 0.4807668750 -3.1468609375 -2.3722624160
161 1 2.1960234375 -6.2635251250 -4.8947939360
162 1 2.2351534375 -5.7376337813 -4.0286936960
163 1 2.1921937500 -4.6263028125 -4.0126073120
164 1 2.2144328125 -2.3678487500 -4.0786236560
165 1 -2.2334065625 -2.4687778125 -4.8505369520
166 1 -1.6872662500 -2.4077312500 -5.7018369416
167 1 -1.6413637500 -2.3177806250 -2.4564115600
168 1 -0.5345437500 -2.7993268750 -3.2291019760
169 1 1.6045181250 -2.9706684375 -2.3918976480
170 1 2.2106434375 -5.1630503125 -4.8544355040
171 1 2.1987109375 -3.4504678125 -4.0633273440
172 1 -1.1404943750 -2.2972078125 -4.8766870400
173 1 -0.5402950000 -6.6579516281 -5.6972014208
174 1 -0.5575621875 -6.6413301125 -2.4011712800
175 1 -1.7121121875 -6.2972734063 -6.4188938549
176 1 0.4687134375 -4.8239012500 -6.4702853574
177 1 1.6313796875 -3.5212431250 -6.4752272785
178 1 -1.6905181250 -3.0084681250 -6.4692354424
179 1 6.7108353125 -2.2979200000 -4.8658462160
180 1 2.2397221875 -4.0496325000 -4.8022778000
181 1 6.6835303125 -6.3023044063 -4.0356877760
182 1 6.6495334375 -5.1896431250 -4.0497147920
183 1 6.6870643750 -4.6091565625 -4.8018115280
184 1 6.6609418750 -3.4625078125 -4.8558472720
185 1 2.8026190625 -6.2554236563 -5.6369318792
186 1 3.3646693750 -6.3648250625 -4.8586060480
187 1 3.3421615625 -5.7920475938 -4.1053436320
188 1 3.9363275000 -6.3737771250 -5.6731612136
189 1 4.4724837500 -6.4826934375 -4.7940403280
190 1 4.4968190625 -5.8779239688 -4.0702696160
191 1 4.9828803125 -6.6173322156 -5.6790427168
192 1 5.5567153125 -6.5947877188 -4.8426103280
193 1 6.1485968750 -6.1926127500 -6.4028459383
194 1 5.6291837500 -6.0400124688 -4.0273337360
195 1 2.7706243750 -5.1565734375 -5.6653200728
196 1 3.3111612500 -5.1693121875 -4.8073161280
197 1 3.9329950000 -4.7546846875 -6.4712384433
198 1 3.3893675000 -4.5994815625 -4.0657493680
199 1 3.8526387500 -5.3244481250 -5.6534184800
200 1 4.4426659375 -5.3217068750 -4.8743168240
201 1 4.9799778125 -4.9133546875 -6.4119194619
202 1 4.4844431250 -4.7639028125 -4.0611384560
203 1 4.9981050000 -5.4926963750 -5.6639782456
204 1 5.5943806250 -5.5312660313 -4.9352300800
205 1 6.0968221875 -5.0281781250 -6.4757216019
206 1 5.5281068750 -5.0032650000 -4.0250412320
207 1 6.1875521875 -5.5842017188 -5.6832883824
208 1 2.7440987500 -4.0697753125 -5.6888227720
209 1 3.3129081250 -4.0263318750 -4.8700167600
210 1 3.8769068750 -3.6366175000 -6.4358778125
211 1 3.3245046875 -3.4913178125 -4.0257147360
212 1 3.8744881250 -4.2017450000 -5.6458920728
213 1 4.4840265625 -4.2351506250 -4.9370563120
214 1 4.4070431250 -3.7246196875 -4.0235128960
215 1 5.0801543750 -4.3080625000 -5.6881298400
216 1 5.6251525000 -4.4677940625 -4.8654965120
217 1 5.5449171875 -3.9110515625 -4.0341335360
218 1 6.1783743750 -4.4461059375 -5.7125210464
219 1 2.2510768750 -2.9187996875 -4.9078236480
220 1 2.7375950000 -2.3718934375 -6.4509065362
221 1 2.8327459375 -2.9476365625 -5.6680516496
222 1 3.4059493750 -2.9545165625 -4.8887324000
223 1 3.2600584375 -2.4283443750 -4.0255334080
224 1 3.9532050000 -3.0274687500 -5.7228800560
225 1 4.4773615625 -3.1634159375 -4.8348132240
226 1 4.4475706250 -2.6093609375 -3.9955624800
227 1 5.0193093750 -3.1627037500 -5.7044649024
228 1 5.5421490625 -3.3396890625 -4.8097511040
229 1 5.6365206250 -2.7581006250 -4.0513726480
230 1 6.0938525000 -3.3543090625 -5.6442057224
231 1 2.8291043750 -5.6983626875 -3.2414193280
232 1 2.7737687500 -6.2487089375 -2.4224902720
233 1 3.9090762500 -5.8391742500 -3.2895619120
234 1 3.9246637500 -6.3715599375 -2.4130094080
235 1 5.0313896875 -6.0782650000 -3.2547339840
236 1 5.0093521875 -6.6174448219 -2.3920789760
237 1 6.1524668750 -6.1921666250 -3.1673079840
238 1 2.7954434375 -4.6091834375 -3.3033169360
239 1 2.7518387500 -5.1357050000 -2.4213245920
240 1 3.9132418750 -4.7868003125 -3.2319773200
241 1 3.8641681250 -5.3121393750 -2.3739202720
242 1 4.9992606250 -4.9007771875 -3.1551072000
243 1 4.9910771875 -5.5216420938 -2.4582896000
244 1 6.1136056250 -4.9948262500 -3.2211624000
245 1 6.1574118750 -5.5772948438 -2.4680295040
246 1 2.7473371875 -3.5076040625 -3.2309929680
247 1 2.7682459375 -4.0924175000 -2.4258836960
248 1 3.8760468750 -3.6083046875 -3.1742761600
249 1 3.8657806250 -4.2057628125 -2.4458815840
250 1 4.9954175000 -3.7231818750 -3.2340496400
251 1 5.0495571875 -4.2952565625 -2.4527720480
252 1 6.1402521875 -3.9082834375 -3.2936158880
253 1 6.1912878125 -4.4340256250 -2.4208453680
254 1 2.7475656250 -2.3361900000 -3.1661034480
255 1 2.7896115625 -2.9527696875 -2.4452080800
256 1 3.8620718750 -2.4559718750 -3.2591765200
257 1 3.9507459375 -3.0118006250 -2.4397293840
258 1 5.0545828125 -2.6242496875 -3.2861555360
259 1 5.0579018750 -3.1682534375 -2.4297045360
260 1 6.2017959375 -2.8002540625 -3.2553945360
261 1 6.1279837500 -3.3582328125 -2.4529145200
262 1 6.0757521875 -2.2578896875 -2.3971691120
263 1 6.1082575000 -2.2804781250 -5.6085229624
264 1 5.0669050000 -6.0551014375 -6.4748350272
265 1 -6.1725021875 -1.8896887500 -6.4313126210
266 1 -6.7087090566 -1.7377240625 -4.0745567280
267 1 -5.6179983750 -1.9289531250 -4.0402727840
268 1 -4.5092084375 -2.1526068750 -4.0296780480
269 1 -3.3630165625 -2.0923128125 -4.0673295120
270 1 -6.7078842763 -0.6373406250 -4.0221399840
271 1 -6.1243462188 -1.3105325000 -5.6861883352
272 1 -5.5467487188 -1.4104806250 -4.9043525120
273 1 -5.6244685313 -0.8647568750 -4.0386667360
274 1 -4.9609771875 -1.4347353125 -5.6775584176
275 1 -4.4369684375 -1.5844559375 -4.8257468240
276 1 -4.4751712500 -1.0034184375 -4.0644671200
277 1 -3.8930050000 -1.5580378125 -5.6943001728
278 1 -3.3545106250 -1.5125787500 -4.8536454320
279 1 -3.2879681250 -0.9677687500 -4.0292506320
280 1 -2.7870987500 -1.4508334375 -5.6492699544
281 1 -6.6639373625 -0.1121359375 -4.8913616560
282 1 -6.0895404063 -0.1551225000 -5.6909002728
283 1 -5.5583627500 -0.3040771875 -4.8425585200
284 1 -5.5524677188 0.2521950000 -4.0339392560
285 1 -5.0070543750 -0.3470906250 -5.7075604304
286 1 -4.4774287500 -0.4288981250 -4.8187527440
287 1 -4.3845621875 0.1742037500 -4.0654514720
288 1 -3.9295953125 -0.4527900000 -5.6806371080
289 1 -3.3739950000 -0.4176240625 -4.8658591680
290 1 -2.7443406250 0.2151881250 -6.4559171469
291 1 -3.3018759375 0.1539803125 -4.0676792160
292 1 -2.7805278125 -0.3404390625 -5.6416489976
293 1 -6.6768684031 0.9796475000 -4.8200220400
294 1 -6.7065980925 1.5535631250 -4.0384983600
295 1 -6.1561326250 0.9486203125 -5.7129238536
296 1 -5.6209210313 0.8268228125 -4.8201127040
297 1 -5.0070678125 1.3389125000 -6.4531148522
298 1 -5.5449279375 1.4140953125 -4.0577968400
299 1 -5.0850993750 0.7605893750 -5.6700734568
300 1 -4.5063462500 0.6920043750 -4.8996379840
301 1 -4.4631581250 1.2492037500 -4.0622523280
302 1 -3.9127043750 0.6770350000 -5.6410506152
303 1 -3.3408850000 0.7170250000 -4.8715710000
304 1 -2.7798962500 0.7979456250 -5.6709490120
305 1 -6.1885720938 -1.8987321875 -3.2104640480
306 1 -5.0746315625 -2.0490440625 -3.2272239360
307 1 -3.9191812500 -2.0895043750 -3.2565990720
308 1 -2.8173062500 -1.9513668750 -3.2135984320
309 1 -6.1597903125 -0.7425025000 -3.1927068560
310 1 -6.1339405938 -1.3313606250 -2.4469695520
311 1 -5.0367109375 -0.9006081250 -3.2576870400
312 1 -4.9863203125 -1.4578612500 -2.4657758560
313 1 -3.9075309375 -1.0031228125 -3.3011539520
314 1 -3.9281037500 -1.5588440625 -2.4301060480
315 1 -2.7515296875 -0.7798721875 -3.1171707920
316 1 -2.8143634375 -1.3379450000 -2.4500780320
317 1 -6.1159450938 0.4245040625 -3.2755478480
318 1 -6.1100540938 -0.1422896875 -2.4816420560
319 1 -4.9563412500 0.1665040625 -3.2689034720
320 1 -5.0007656250 -0.3629065625 -2.4019872560
321 1 -3.8719618750 0.0676846875 -3.2204241360
322 1 -3.8442671875 -0.4761175000 -2.3986844960
323 1 -6.1208390313 1.5075128125 -3.2651085360
324 1 -6.1350397813 0.9606603125 -2.4147061200
325 1 -5.0031037500 1.3099412500 -3.2183777200
326 1 -5.0397612500 0.7252756250 -2.4455577840
327 1 -2.7597803125 1.2582740625 -3.2078866000
328 1 -3.8876300000 0.6658415625 -2.4499355600
329 1 -2.7687296875 0.1416984375 -3.1578012160
330 1 -2.7583962500 0.6259993750 -2.3985290720
331 1 -2.2616656250 -1.9069962500 -4.0126979760
332 1 -2.2453928125 -0.8007540625 -4.0943214800
333 1 -6.1958216250 2.0720356250 -5.6449698904
334 1 -5.6139053125 1.9447690625 -4.9003114880
335 1 -4.9982259375 1.8874715625 -5.6083442248
336 1 -4.4209778125 1.8114959375 -4.8463146000
337 1 -3.8765709375 1.8158496875 -5.6770727176
338 1 -3.3280387500 1.8069675000 -4.8351370240
339 1 -3.3359937500 1.2310900000 -4.0102759520
340 1 -2.7732312500 1.9098046875 -5.7012061792
341 1 -6.1605643125 2.0491381250 -2.4228788320
342 1 -4.9993412500 1.8767618750 -2.4347040080
343 1 -3.8983665625 1.2211596875 -3.2228591120
344 1 -3.8833434375 1.8072496875 -2.4407266880
345 1 -2.7762950000 1.7947796875 -2.4439646880
346 1 -6.6808026344 -1.1778640625 -4.8882013680
347 1 -5.0569612500 -2.0194815625 -6.4471750650
348 1 -6.1868480625 -0.7297906250 -6.4559877353
349 1 -2.7245068750 -0.8721878125 -6.4618321958
350 1 -3.8478953125 0.1299271875 -6.4651646806
351 1 -3.9531646875 1.2270856250 -6.4567057942
352 1 -2.1972193750 -1.3889940625 -4.8647193920
353 1 -2.2148493750 0.3280765625 -4.0413866560
354 1 -2.2348175000 2.0050228125 -4.8563135440
355 1 1.6283562500 -1.8614028125 -2.3732726720
356 1 -1.6287593750 0.4124237500 -3.2483486480
357 1 -1.6760056250 -1.8350518750 -6.4246846941
358 1 -1.1007462500 -1.7614950000 -4.0176585920
359 1 -0.5545790625 -2.2170262500 -5.6603335528
360 1 -0.5417865625 -1.6327100000 -3.2294387280
361 1 -0.0173478125 -2.0947046875 -4.8313032320
362 1 0.0246040625 -1.5310821875 -4.0131642480
363 1 0.5466778125 -2.0642150000 -5.6557472496
364 1 1.0945246875 -1.9362228125 -4.8325595760
365 1 1.1256190625 -1.3508315625 -4.0468005920
366 1 1.6390793750 -1.8297037500 -5.6528472968
367 1 -1.6670293750 -1.2219659375 -5.6896309768
368 1 -1.0908428125 -1.2306868750 -4.8564301120
369 1 -1.1442568750 -0.6264831250 -4.1218574320
370 1 -0.5540818750 -1.0496971875 -5.6888085248
371 1 0.0110053125 -1.0056759375 -4.8840178720
372 1 -0.0183018750 -0.4741690625 -4.0290174960
373 1 0.5599137500 -0.9485262500 -5.7040374864
374 1 1.1151781250 -0.8000687500 -4.8666492400
375 1 1.1063631250 -0.2722840625 -3.9937621520
376 1 1.6618021875 -0.7384981250 -5.7118112768
377 1 -2.2171203125 -0.2126887500 -4.8591111760
378 1 -1.6492381250 0.3618181250 -6.4500829185
379 1 -1.6427881250 -0.1971146875 -5.6292526384
380 1 -1.0520487500 -0.0374234375 -4.8775289200
381 1 -1.1056643750 0.5126809375 -4.0651276720
382 1 -0.4947956250 0.0259209375 -5.6942108040
383 1 0.0622425000 0.0908509375 -4.8420145360
384 1 -0.0061812500 0.6693756250 -4.0712280640
385 1 0.5776109375 0.2051771875 -5.7286566480
386 1 1.1298921875 0.2699593750 -4.8801711280
387 1 1.6839337500 0.3589693750 -5.7149819264
388 1 1.1393925000 0.8005256250 -4.0239921200
389 1 -2.2286631250 0.8978400000 -4.8374036240
390 1 -2.2194584375 1.4541659375 -4.0242511600
391 1 -1.6875350000 0.9317562500 -5.6771607912
392 1 -1.1302146875 1.0730112500 -4.8808316800
393 1 -1.0777412500 1.6038328125 -4.0427077600
394 1 -0.5282012500 1.1299593750 -5.6229566712
395 1 0.0457546875 1.2302971875 -4.8670766560
396 1 0.0148215625 1.7850912500 -4.0406613440
397 1 0.6098206250 1.3339003125 -5.6599760776
398 1 1.1697881250 1.3667146875 -4.8381936960
399 1 1.6996421875 1.5255056250 -5.6692238056
400 1 1.7146653125 0.9559571875 -6.4607573093
401 1 -1.6994809375 -1.7703100000 -3.2505763920
402 1 -0.5322593750 -1.0584315625 -2.4254692320
403 1 0.5963965625 -1.5110334375 -3.2060733200
404 1 0.5316681250 -2.0841831250 -2.4040595760
405 1 1.7088871875 -1.3357681250 -3.2378963840
406 1 -1.6435943750 -1.2460593750 -2.3783369040
407 1 -0.6153837500 -0.5176931250 -3.2467296480
408 1 -0.5589731250 0.0142706250 -2.3686747120
409 1 0.5271128125 -0.3102046875 -3.2102179600
410 1 1.7029612500 -0.2316759375 -3.2446314240
411 1 -1.6505012500 0.9844446875 -2.4303132800
412 1 -1.6651884375 -0.7105078125 -3.2531926960
413 1 -0.5327968750 0.5538937500 -3.2379352400
414 1 -1.7282237500 -0.1463746875 -2.4252749520
415 1 0.5821528125 1.3383078125 -2.3922991600
416 1 0.5519050000 0.8354765625 -3.2606012400
417 1 1.6932056250 0.9660218750 -3.2393988160
418 1 1.6920365625 0.3683621875 -2.5076367200
419 1 -1.6506490625 1.5297384375 -3.2320161760
420 1 -0.5434662500 1.1070753125 -2.4601417360
421 1 0.5869634375 1.9127071875 -3.2285061840
422 1 1.1237109375 1.9530196875 -4.0960440960
423 1 1.7051112500 1.5169056250 -2.4308313600
424 1 2.2359328125 -1.8021703125 -4.9075775600
425 1 1.6310840625 2.0891415625 -3.2040269040
426 1 -1.6656721875 2.0333356250 -5.6953946168
427 1 -1.1417575000 2.1910246875 -4.8075363120
428 1 -1.6229140625 2.0847609375 -2.3632348720
429 1 -0.5763478125 -2.2124306250 -2.4679129360
430 1 0.5594837500 -0.8981490625 -2.4793625040
431 1 0.5924593750 0.2740578125 -2.4316214320
432 1 1.6833021875 -0.7646609375 -2.4210007920
433 1 -0.5486665625 1.7116150000 -3.2095962640
434 1 2.2106031250 0.4415293750 -4.8535029600
435 1 2.1988318750 -0.6754493750 -4.8109556400
436 1 2.2070287500 2.0792246875 -4.0530564080
437 1 -0.5716984375 0.6240778125 -6.4692881311
438 1 -0.5060025000 1.7015637500 -6.4587532463
439 1 0.5475781250 1.9006806250 -6.4662591635
440 1 1.6693003125 2.0812268750 -6.4727236750
441 1 -0.5537459375 -1.6711143750 -6.4416149009
442 1 5.5309825000 -2.1922475000 -4.8298914640
443 1 6.7023025000 0.4150306250 -4.0150163840
444 1 6.6684668750 2.1093112500 -4.8525963200
445 1 2.2485640625 -1.2779868750 -4.0628610720
446 1 2.2769306250 0.9978553125 -4.0099132960
447 1 2.8194965625 -1.7929387500 -5.6730925680
448 1 3.3808750000 -1.8708359375 -4.8553550960
449 1 3.3585418750 -1.3247896875 -4.0210261120
450 1 3.9253625000 -1.8873237500 -5.7154080472
451 1 4.4281668750 -2.0559778125 -4.8036766160
452 1 4.5016968750 -1.4565309375 -4.0529657440
453 1 4.9797762500 -2.0679640625 -5.6437316792
454 1 5.6269800000 -1.6007690625 -4.0969895920
455 1 2.8547834375 -0.1249015625 -3.2743562640
456 1 2.7222896875 -0.6498778125 -5.6882477032
457 1 3.2853075000 -0.7719843750 -4.8547463520
458 1 3.9575721875 -0.2455031250 -6.4590121568
459 1 3.4221550000 -0.2035646875 -4.0733392400
460 1 3.8671512500 -0.7674290625 -5.6061397944
461 1 4.4612096875 -0.9086034375 -4.8679055840
462 1 4.5067225000 -0.3337740625 -4.0993598080
463 1 5.0478237500 -1.0070196875 -5.6115304168
464 1 5.6385093750 -1.0152434375 -4.8399810720
465 1 6.1380081250 -0.6103984375 -6.4391048033
466 1 5.6135290625 -0.4380759375 -4.0625372720
467 1 6.1628943750 -1.2018231250 -5.6726806944
468 1 2.2646756250 -0.1052828125 -4.0344573360
469 1 2.7896653125 0.4270571875 -5.6452341112
470 1 3.3460450000 0.3833584375 -4.8340490560
471 1 3.3732828125 0.9746353125 -4.1028698000
472 1 3.9195843750 0.3135775000 -5.6177279488
473 1 4.5229146875 0.2637781250 -4.8487884320
474 1 5.0289171875 0.6831221875 -6.4277030282
475 1 4.4926937500 0.8320096875 -4.0653349040
476 1 5.0560743750 0.0897893750 -5.6698066456
477 1 5.6498103125 0.1029178125 -4.8853648800
478 1 5.6032628125 0.6469081250 -4.0115193440
479 1 6.2065796875 -0.0340640625 -5.6870172632
480 1 2.2861487500 1.5277631250 -4.8860254320
481 1 2.7824628125 2.0930787500 -6.4565927232
482 1 2.8543534375 1.5297115625 -5.6666204536
483 1 3.4077096875 1.5720128125 -4.8399810720
484 1 3.9122475000 1.9853234375 -6.4627629265
485 1 3.3318146875 2.1113000000 -4.0108976480
486 1 3.9465265625 1.3927968750 -5.6780454128
487 1 4.5142878125 1.3852853125 -4.8671673200
488 1 4.4875740625 1.9367603125 -4.0143817360
489 1 5.0780850000 1.2625068750 -5.6752438952
490 1 5.6498371875 1.1638487500 -4.8927086640
491 1 5.5901075000 1.6987418750 -4.0309991520
492 1 6.2259028125 1.1139418750 -5.6844540624
493 1 2.7928768750 -1.2083134375 -3.2243226880
494 1 2.8225737500 -1.7733334375 -2.4020002080
495 1 3.9401571875 -1.3465853125 -3.2491775760
496 1 3.9356556250 -1.9121831250 -2.4448842800
497 1 5.0834465625 -1.5299803125 -3.2561198480
498 1 4.9867503125 -2.0790634375 -2.4420218880
499 1 6.1763721875 -1.7214646875 -3.2373264960
500 1 2.7715515625 0.4196531250 -2.4398977600
501 1 2.8106815625 -0.6632212500 -2.4032436000
502 1 3.9691284375 -0.2173381250 -3.2374042080
503 1 3.8993878125 -0.7821162500 -2.4609059040
504 1 5.0518415625 -0.4584337500 -3.2436341200
505 1 4.9965865625 -0.9852375000 -2.3860562960
506 1 6.1458690625 -0.6428500000 -3.2259157840
507 1 6.1351996875 -1.1797587500 -2.3768344720
508 1 2.7405646875 2.1297900000 -3.2307598320
509 1 2.8596881250 0.9851703125 -3.2211624000
510 1 3.9265046875 0.8474225000 -3.2537625840
511 1 3.9328337500 0.3193825000 -2.3794378240
512 1 5.0214459375 0.6403103125 -3.2242579280
513 1 5.1014662500 0.0860134375 -2.3996170400
514 1 6.1664687500 0.5483037500 -3.1973307200
515 1 6.2156634375 -0.0605359375 -2.4772254240
516 1 3.9014840625 1.9488540625 -3.2496827040
517 1 3.9613481250 1.4106956250 -2.4094735120
518 1 5.0571762500 1.8185775000 -3.2047910720
519 1 5.0643518750 1.2216971875 -2.4692469920
520 1 6.1820831250 1.7165331250 -3.2450976960
521 1 6.1976168750 1.1423621875 -2.4703479120
522 1 6.1216681250 2.2245915625 -5.7071563280
523 1 2.8260943750 1.5719590625 -2.4433041360
524 1 2.8365890625 -1.2227587500 -6.4604919228
525 1 5.0154931250 -0.4734165625 -6.4654489640
526 1 6.1273656250 0.5444068750 -6.4653605407
527 1 -6.1309131250 6.5659656250 -5.6636868256
528 1 -5.5723149063 6.4055756250 -4.8844711920
529 1 -4.9907412500 6.3945971875 -5.6876221216
530 1 -4.4794309375 6.2836168750 -4.7905950960
531 1 -3.9518209375 6.2581125000 -5.6711899192
532 1 -3.3918400000 6.3178153125 -4.8474414240
533 1 -2.8271828125 6.3891550000 -5.6334957136
534 1 -6.1689157188 6.5613431250 -2.4712804560
535 1 -5.0147137500 6.4067178125 -2.4064945520
536 1 -3.9172596875 6.2690103125 -2.4227493120
537 1 -2.8404187500 6.3554537500 -2.4653872960
538 1 -3.9199875000 2.3478000000 -3.2841609280
539 1 -6.1288168750 2.6422290625 -6.4421599210
540 1 -6.6623174719 2.6830656250 -4.0665523920
541 1 -5.6135089063 2.5114553125 -4.0965621760
542 1 -4.5031346875 2.3767309375 -4.0580429280
543 1 -6.1203727500 3.1859775000 -5.5983880224
544 1 -5.5416330625 3.1041028125 -4.8430766000
545 1 -5.6065523125 3.6727509375 -4.0614234000
546 1 -4.9859306250 2.9640571875 -5.6758202592
547 1 -4.4347378125 2.9590853125 -4.8094920640
548 1 -4.4568559375 3.5504562500 -4.0286289360
549 1 -3.9243278125 2.9106834375 -5.6980316440
550 1 -3.3675450000 2.8804087500 -4.8479076960
551 1 -3.3320028125 3.4528731250 -4.0636770480
552 1 -2.8311468750 3.0801437500 -5.6580060784
553 1 -6.6783625188 4.3853415625 -4.8021094240
554 1 -6.1525649688 4.2410900000 -5.6831005784
555 1 -5.5883203125 4.2557771875 -4.8326502400
556 1 -5.5643908125 4.8159059375 -4.0128922560
557 1 -5.0660987500 4.0988675000 -5.6983761672
558 1 -4.4818631250 4.0517690625 -4.9160999760
559 1 -3.9530706250 4.6068990625 -6.4404888540
560 1 -4.4854509375 4.5977884375 -4.0230336720
561 1 -3.8781028125 4.0325534375 -5.6461252088
562 1 -3.3328225000 4.0433034375 -4.8238558320
563 1 -3.4099537500 4.6179043750 -4.0743883520
564 1 -2.7865209375 4.1889793750 -5.6620781872
565 1 -6.1603667813 5.9776046875 -6.4105609266
566 1 -6.2057358125 5.3690068750 -5.7048871376
567 1 -5.6338022188 5.3272968750 -4.9168900480
568 1 -5.6303393750 5.8599190625 -4.0422414880
569 1 -5.0420725000 5.2862050000 -5.6653045304
570 1 -4.4823334375 5.1306525000 -4.8832666560
571 1 -4.5171903125 5.6860109375 -4.0734428560
572 1 -3.8979365625 5.1786512500 -5.6432200752
573 1 -3.3372837500 5.1982968750 -4.8504333360
574 1 -2.8297225000 5.8284215625 -6.4400265971
575 1 -3.3593884375 5.7544750000 -4.0378896160
576 1 -2.7654912500 5.2486068750 -5.6525377440
577 1 -6.1333815938 2.6241690625 -3.2013976480
578 1 -5.0549590625 2.4459340625 -3.2404220240
579 1 -3.3013518750 2.3455425000 -3.9917804960
580 1 -2.7549831250 2.4317037500 -3.1665308640
581 1 -6.1754127500 3.7389306250 -3.2723098480
582 1 -6.1515195313 3.2028012500 -2.4251195280
583 1 -5.0517206250 3.5062334375 -3.2674269440
584 1 -5.0087878125 2.9853287500 -2.3964697040
585 1 -3.9040909375 3.4442462500 -3.2393340560
586 1 -3.9124759375 2.8767671875 -2.4181902080
587 1 -2.8177093750 3.6455937500 -3.2453049280
588 1 -2.8083703125 3.0270656250 -2.4903458000
589 1 -6.1855500000 4.7942446875 -3.2767782880
590 1 -6.1492633750 4.2739043750 -2.3885171760
591 1 -5.0423412500 4.6594934375 -3.1782783280
592 1 -5.0615703125 4.0640106250 -2.4603360160
593 1 -3.9147468750 4.5968343750 -3.1955174400
594 1 -3.9297834375 4.0001959375 -2.4436279360
595 1 -2.8175481250 4.7002762500 -3.2882667120
596 1 -2.7811056250 4.1649531250 -2.3864707600
597 1 -6.1695634063 5.9509446875 -3.1707661680
598 1 -6.1999482813 5.3493478125 -2.4576938080
599 1 -5.0550531250 5.8442240625 -3.2211494480
600 1 -5.0572703125 5.2637643750 -2.4593646160
601 1 -3.9527078125 5.7309996875 -3.2762861120
602 1 -3.9085925000 5.1832871875 -2.4419830320
603 1 -2.7956718750 5.7864965625 -3.2350210400
604 1 -2.8114743750 5.2300228125 -2.4106780480
605 1 -2.2643934375 5.9345240625 -4.0719404240
606 1 -2.2402193750 4.7400378125 -4.0746473920
607 1 -6.6893706531 6.1084993750 -4.0222176960
608 1 -2.7739837500 2.5049784375 -6.4350925327
609 1 -5.0097553125 4.6932350000 -6.4227606745
610 1 -1.0775262500 6.6339190625 -4.8337123040
611 1 -2.2305309375 6.4749803125 -4.9063600720
612 1 -2.2177518750 5.3404253125 -4.8106318400
613 1 -1.6267706250 6.5697550000 -5.6408433832
614 1 -1.7167078125 6.5738131250 -2.4076213760
615 1 1.1306312500 2.5409506250 -4.8549147280
616 1 -2.2123500000 2.5504240625 -3.9984766800
617 1 -1.1141568750 2.7816028125 -4.0708654080
618 1 -0.5957515625 2.2483490625 -5.6479333080
619 1 -0.0224540625 2.3482568750 -4.8449546400
620 1 0.6036259375 2.9872637500 -6.4588988268
621 1 0.0361468750 2.9129678125 -4.0334082240
622 1 0.5552643750 2.4370384375 -5.6225007608
623 1 1.7082421875 2.6261846875 -5.6341459040
624 1 1.1087550000 3.6570156250 -4.8775289200
625 1 -2.2381768750 3.0737475000 -4.9157891280
626 1 -1.6637909375 3.7578237500 -6.4264170241
627 1 -2.2188537500 3.5817387500 -4.0249376160
628 1 -1.6461609375 3.1798365625 -5.6629330192
629 1 -1.1027887500 3.3475231250 -4.8528942160
630 1 -1.1279975000 3.9089821875 -4.0199251920
631 1 -0.5377284375 3.3266950000 -5.6786450904
632 1 -0.0187587500 4.0705815625 -4.0710078800
633 1 -0.0088284375 3.4833359375 -4.8157219760
634 1 0.5284834375 3.5592040625 -5.6618567080