ITEM: TIMESTEP
45000
ITEM: NUMBER OF ATOMS
2304
ITEM: BOX BOUNDS pp pp pp
-6.7187500000 6.7187500000
-6.7187500000 6.7187500000
-6.4760000000 6.4760000000
ITEM: ATOMS id type x y z
1 1 -5.0506456250 -6.5199139688 -6.4278473134
2 1 -5.6184901875 -6.5988872313 -4.0247044800
3 1 -3.9077728125 -6.3971288125 -6.4704389552
4 1 -4.5083753125 -6.4189674375 -4.0305328800
5 1 -3.3979003125 -6.2150762188 -4.0479403680
6 1 -6.7094730456 -5.9697330000 -4.7929264560
7 1 -6.1396905000 -5.4519646250 -6.4725803741
8 1 -6.2086866875 -6.0293672813 -5.6876350736
9 1 -5.6298072500 -6.0537160313 -4.8730216240
10 1 -5.0649296875 -5.3494015625 -6.4520744180
11 1 -5.5709335313 -5.5073889375 -4.0179953440
12 1 -5.0715140625 -5.9504313750 -5.6900221272
13 1 -4.5093025000 -5.8951347188 -4.9093908400
14 1 -3.9626650000 -5.2536728125 -6.4277120946
15 1 -4.4869559375 -5.3577059375 -4.0385501680
16 1 -3.9072084375 -5.8319959375 -5.6807096392
17 1 -3.3706625000 -5.6533242188 -4.8717523280
18 1 -3.3854303125 -5.1174568750 -4.0389128240
19 1 -2.7917481250 -5.6741133750 -5.6680697824
20 1 -6.7152975972 -4.2786478125 -3.9989300000
21 1 -6.1894697188 -4.9036528125 -5.6602040328
22 1 -5.6353502188 -4.9709478125 -4.8516378720
23 1 -5.6042854063 -4.3923693750 -4.1078433680
24 1 -5.0708556250 -4.7902403125 -5.6337884288
25 1 -4.4773212500 -4.8174646875 -4.8835645520
26 1 -4.4705890625 -4.2760140625 -4.0418270240
27 1 -3.9314900000 -4.6443225000 -5.7160957984
28 1 -3.3810631250 -4.5650546875 -4.9004928160
29 1 -3.3576684375 -4.0472003125 -3.9987875280
30 1 -2.7912240625 -4.5583762500 -5.6823027352
31 1 -6.1258848125 -3.7933659375 -5.6403214176
32 1 -5.6014527813 -3.7567621875 -4.7861784640
33 1 -5.6281557813 -3.1672456250 -4.0590790880
34 1 -5.0622825000 -3.7428543750 -5.6511013672
35 1 -4.4867678125 -3.6962128125 -4.8285185520
36 1 -4.4688421875 -3.1143825000 -4.0701660000
37 1 -3.9581231250 -3.4791837500 -5.6590098584
38 1 -3.3669806250 -3.5227212500 -4.8730734320
39 1 -3.3667656250 -2.9677525000 -4.0425782400
40 1 -2.8326384375 -3.3569562500 -5.7162693552
41 1 -6.1884740000 -6.5448942813 -3.2326249200
42 1 -5.0656150000 -6.5630040000 -3.2059956080
43 1 -3.9430059375 -6.3990920313 -3.2260064480
44 1 -2.8183812500 -6.2146905625 -3.2667793440
45 1 -6.1797759063 -5.4492153125 -3.2739806560
46 1 -6.1560224375 -5.9842347500 -2.4085150640
47 1 -5.0312418750 -5.3685500000 -3.1985223040
48 1 -5.0586006250 -5.9734914688 -2.4650505440
49 1 -3.9279693750 -5.2551778125 -3.1938595840
50 1 -3.9031368750 -5.8431047188 -2.4245625920
51 1 -2.8303271875 -5.0962659375 -3.2063971200
52 1 -2.7634621875 -5.6848539688 -2.4247180160
53 1 -6.1315648438 -4.3143378125 -3.2425072960
54 1 -6.1933047813 -4.9059909375 -2.4556603440
55 1 -5.0625915625 -4.2348146875 -3.2664037360
56 1 -5.0913209375 -4.7983834375 -2.4318286640
57 1 -3.9423609375 -4.0918665625 -3.2125622720
58 1 -3.9428715625 -4.6731459375 -2.4397034800
59 1 -2.8003346875 -3.9562821875 -3.2005169120
60 1 -2.7915062500 -4.5441728125 -2.4176462240
61 1 -6.1963752500 -3.2335865625 -3.2478046640
62 1 -6.1897411563 -3.7846853125 -2.4021038240
63 1 -5.0703450000 -3.1840559375 -3.2812726320
64 1 -5.0632903125 -3.7048665625 -2.3868463680
65 1 -3.9429387500 -2.9409715625 -3.2384792240
66 1 -3.9421593750 -3.5214043750 -2.4627450880
67 1 -2.8414400000 -2.7840618750 -3.2134430080
68 1 -2.7960750000 -3.3885746875 -2.4424363520
69 1 -2.2694728125 -6.6367881031 -4.8158255920
70 1 -2.2535090625 -6.0656149375 -4.0409592400
71 1 -2.2487118750 -5.5023592813 -4.8429859360
72 1 -2.2586556250 -4.3522718750 -4.8540210400
73 1 -2.2550006250 -3.8000443750 -4.0382134160
74 1 -2.2799406250 -3.2580965625 -4.8899887440
75 1 -6.7180251718 -2.6209306250 -4.8149966640
76 1 -6.1910351875 -2.7201262500 -5.6886220160
77 1 -5.6252398438 -2.6091996875 -4.8692007840
78 1 -5.0620943750 -2.6584884375 -5.6656335112
79 1 -4.5175934375 -2.5301200000 -4.8426880400
80 1 -3.9258328125 -2.4121253125 -5.6077600896
81 1 -3.3375525000 -2.4054737500 -4.8336216400
82 1 -6.1138273438 -2.6954550000 -2.4033472160
83 1 -5.0223462500 -2.6326346875 -2.4383694240
84 1 -3.9284800000 -2.3978412500 -2.4079710800
85 1 -2.2966837500 -4.9346800000 -4.0642080800
86 1 -3.9401034375 -4.0466628125 -6.4401369482
87 1 -2.8049840625 -3.9588487500 -6.4158616622
88 1 -2.8257315625 -2.7495140625 -6.4418823597
89 1 -2.2304906250 -2.7429565625 -3.9578851120
90 1 -1.7047484375 -6.5529970938 -5.6453960112
91 1 -1.1299056250 -6.5350392188 -4.8756767840
92 1 -1.1060809375 -5.9757274688 -4.0793748720
93 1 -0.5749100000 -6.3322928750 -5.6637153200
94 1 0.0283665625 -6.3412073125 -4.9041711840
95 1 0.5663637500 -5.7180405625 -6.4511173947
96 1 -0.0243084375 -5.7957227500 -4.0716684320
97 1 0.5782559375 -6.3250151250 -5.7022501104
98 1 1.1225150000 -6.2582965938 -4.8232729920
99 1 1.1068871875 -5.7071306563 -3.9998625440
100 1 1.6409471875 -6.3738819375 -5.7009471392
101 1 -1.6830871875 -5.4695260938 -5.6687925040
102 1 -1.1503978125 -5.3702700000 -4.8053344720
103 1 -1.1564043750 -4.7922559375 -4.0484195920
104 1 -0.6120243750 -5.2583490625 -5.6730316936
105 1 -0.0463996875 -5.2215571875 -4.8582952000
106 1 0.0256387500 -4.6627587500 -4.0379284720
107 1 0.5060696875 -5.1557268750 -5.6796916120
108 1 1.0772171875 -5.2027984375 -4.9199337680
109 1 1.0935437500 -4.6598293750 -4.0623429920
110 1 1.7076375000 -5.2114387500 -5.6166568184
111 1 -1.6809909375 -4.3818478125 -5.6406128376
112 1 -1.1236034375 -4.2284453125 -4.8346318960
113 1 -1.1654746875 -3.6308259375 -4.0862005760
114 1 -0.5722090625 -4.1362371875 -5.6750560912
115 1 -0.0250743750 -4.1123453125 -4.8602380000
116 1 -0.0492215625 -3.5490990625 -4.0681325360
117 1 0.5598196875 -3.9910584375 -5.6360032208
118 1 1.1217087500 -4.0753384375 -4.8567409600
119 1 1.0989859375 -3.5251265625 -4.0471114400
120 1 1.6802250000 -4.1451328125 -5.6836445624
121 1 -1.6957453125 -3.2751487500 -5.6678444176
122 1 -1.1485300000 -3.0702134375 -4.8877221440
123 1 -1.1258609375 -2.5355890625 -4.0527714640
124 1 -0.5341003125 -3.0416587500 -5.6112674912
125 1 0.5491906250 -2.9180740625 -5.7101443544
126 1 0.0352734375 -2.9543687500 -4.8200738480
127 1 1.1116440625 -2.9469243750 -4.8184678000
128 1 1.1358987500 -2.3603506250 -4.0071286160
129 1 1.6997362500 -2.4370921875 -3.2199578640
130 1 1.6204146875 -3.0048803125 -5.7192224112
131 1 -1.6670562500 -5.9663521250 -3.2705483760
132 1 -1.7389065625 -6.5000923125 -2.3817044240
133 1 -0.5833890625 -5.7884396250 -3.2092854160
134 1 -0.5827709375 -6.3430106250 -2.4171799520
135 1 0.5080853125 -5.7442423438 -3.2419503600
136 1 0.5939106250 -6.2957710938 -2.4218297200
137 1 1.6789081250 -5.8052674063 -3.2285838960
138 1 1.6660081250 -6.4006480938 -2.4494045280
139 1 -1.7253750000 -4.8822065625 -3.2589304320
140 1 -1.6986746875 -5.4157465313 -2.4095771280
141 1 -0.5692125000 -4.7249071875 -3.2997162800
142 1 -0.6130590625 -5.2217721875 -2.3872608320
143 1 0.5634746875 -4.5720959375 -3.1937948240
144 1 0.5352290625 -5.1784900000 -2.4599604080
145 1 1.6602300000 -4.6455050000 -3.2077829840
146 1 1.6533500000 -5.2440784375 -2.4596884160
147 1 -1.6869975000 -3.8112512500 -3.2289076960
148 1 -1.6534978125 -4.3344403125 -2.3681048240
149 1 -0.6064209375 -3.6123359375 -3.2571171520
150 1 -0.5743725000 -4.1722765625 -2.4505313520
151 1 0.5177200000 -3.4394221875 -3.2693438400
152 1 0.5143606250 -3.9935175000 -2.4490030160
153 1 1.6500443750 -3.5807040625 -3.2746412080
154 1 1.6880321875 -4.0855240625 -2.3836990320
155 1 -1.6454890625 -2.6478325000 -3.1780192880
156 1 -1.7421315625 -3.2405740625 -2.4345744880
157 1 -0.0420996875 -2.3727265625 -4.0933241760
158 1 -0.5794518750 -3.0665450000 -2.4247827760
159 1 0.5247075000 -2.3708587500 -3.2851582320
160 1 0.5549284375 -2.9075793750 -2.3964956080
161 1 2.1974478125 -6.4829662188 -4.9099348240
162 1 2.1801000000 -4.7758756250 -4.0787013680
163 1 2.2261771875 -4.1686887500 -4.8071736560
164 1 2.1783934375 -3.1033503125 -4.9114631600
165 1 -0.5612037500 -2.5049650000 -3.2155023760
166 1 1.6161818750 -3.0114243750 -2.4594034720
167 1 2.2216353125 -5.9312103750 -4.0623170880
168 1 1.6780212500 -5.7676719688 -6.4331423501
169 1 0.5521871875 -4.5608756250 -6.4391033786
170 1 -1.6857075000 -2.6950384375 -6.4239035590
171 1 1.6832350000 -2.4109293750 -6.4281541463
172 1 6.6844306250 -4.8316950000 -4.8482444480
173 1 6.7034178125 -3.7718121875 -4.8947939360
174 1 2.2551350000 -5.3549915625 -4.8315622720
175 1 2.2760303125 -3.6103471875 -4.0019478160
176 1 2.2399371875 -2.5530578125 -4.0615140640
177 1 6.6999509375 -6.5866347844 -4.0816285200
178 1 6.6844843750 -5.3976865313 -4.0410369520
179 1 6.6790153125 -3.2089690625 -4.0787790800
180 1 2.8232993750 -6.4882296875 -5.6205022672
181 1 3.3847853125 -6.6513243875 -4.8700038080
182 1 3.3074525000 -6.0787742813 -4.0896458080
183 1 5.0816190625 -6.2768672188 -6.4203776360
184 1 4.4878293750 -6.1814945625 -3.9959639920
185 1 5.6222768750 -6.3793483125 -4.0295355760
186 1 2.8044465625 -5.4242457500 -5.6753591680
187 1 3.3567546875 -5.4617713125 -4.7938849040
188 1 3.9336534375 -4.9807303125 -6.4188698937
189 1 3.3863978125 -4.9002800000 -3.9895527520
190 1 3.8487821875 -5.5908909063 -5.7112970824
191 1 4.4079837500 -5.6733743125 -4.8886158320
192 1 4.5005815625 -5.1131434375 -4.0470337280
193 1 5.0048909375 -5.7075015313 -5.6297551760
194 1 5.5806878125 -5.8454750938 -4.8831500880
195 1 5.5436003125 -5.2796743750 -4.0890629680
196 1 6.1753643750 -5.8880975000 -5.6327716968
197 1 2.8133421875 -3.6958768750 -6.4261494358
198 1 2.7374606250 -4.3057512500 -5.7096586544
199 1 3.2796906250 -4.3955943750 -4.9003114880
200 1 3.3694262500 -3.8413781250 -4.0619544320
201 1 3.9071278125 -4.4195400000 -5.6129279376
202 1 4.4724837500 -4.5669493750 -4.8725035440
203 1 4.4331790625 -3.9806846875 -4.1141768960
204 1 5.0734893750 -4.6157006250 -5.6345940432
205 1 5.6207987500 -4.6702165625 -4.8119270400
206 1 6.1622359375 -4.2098209375 -6.4166819123
207 1 5.5851490625 -4.1044171875 -4.0117265760
208 1 6.1421065625 -4.8261453125 -5.7147254768
209 1 2.8049034375 -3.1360706250 -5.6146829336
210 1 3.3704340625 -3.2779840625 -4.8614295840
211 1 3.3119271875 -2.6886287500 -4.1119232480
212 1 3.9537156250 -3.3519843750 -5.6489461544
213 1 4.5051771875 -3.3640781250 -4.8031973920
214 1 5.0549993750 -2.9202643750 -6.4174912828
215 1 4.4680225000 -2.8003615625 -4.0062737840
216 1 4.9935093750 -3.5320334375 -5.7184970992
217 1 5.5628428125 -3.5848025000 -4.8905456800
218 1 5.6035450000 -3.0389309375 -4.0123612240
219 1 6.1430471875 -3.6299525000 -5.6680633064
220 1 2.7894234375 -5.9188425000 -3.2162924480
221 1 2.7488287500 -6.5192017813 -2.4769404800
222 1 3.8585915625 -6.1533215000 -3.2892640160
223 1 3.9431537500 -6.6592334313 -2.3660325040
224 1 5.0448675000 -6.3315430625 -3.2319255120
225 1 6.1779712500 -6.4297026563 -3.2002190160
226 1 2.7482509375 -4.8640525000 -3.3028506640
227 1 2.8186634375 -5.3811073438 -2.3832586640
228 1 3.9455725000 -5.0288634375 -3.2274570720
229 1 3.9068725000 -5.6069970938 -2.4440294480
230 1 5.0532525000 -5.1422893750 -3.1784208000
231 1 4.9808243750 -5.7528262188 -2.4740003760
232 1 6.1113212500 -5.3550990625 -3.2570523920
233 1 6.1433025000 -5.8783136563 -2.3801890400
234 1 2.8222646875 -3.7383393750 -3.2166032960
235 1 2.7814012500 -4.3274931250 -2.4507256320
236 1 3.9283456250 -3.8541437500 -3.2016178320
237 1 3.8474250000 -4.4581862500 -2.4571498240
238 1 4.9654787500 -4.0810090625 -3.2729056400
239 1 5.0250875000 -4.5846062500 -2.3586628160
240 1 6.1263309375 -4.2563146875 -3.2296330080
241 1 6.1824056250 -4.8016084375 -2.4207676560
242 1 2.8090556250 -2.5749878125 -3.2031979760
243 1 2.7193200000 -3.1652703125 -2.4529404240
244 1 3.8475996875 -2.8142559375 -3.2803918960
245 1 3.9238709375 -3.3226906250 -2.3543627520
246 1 5.0222387500 -2.9651053125 -3.2321068400
247 1 5.0540318750 -3.5296146875 -2.4314012480
248 1 6.1697206250 -3.0526640625 -3.1931342720
249 1 6.1292871875 -3.6627668750 -2.4902939920
250 1 3.8809650000 -2.2528909375 -5.7182833912
251 1 5.0499737500 -2.3329515625 -5.6546981376
252 1 5.5863046875 -2.5117778125 -4.8672320800
253 1 6.1807393750 -2.5127721875 -5.6531970008
254 1 3.9332906250 -2.2678065625 -2.4467752720
255 1 4.9966940625 -2.3816759375 -2.4760338400
256 1 6.1473471875 -2.4991331250 -2.3742052160
257 1 4.4409862500 -2.2880837500 -4.9114243040
258 1 3.9644118750 -6.6953684813 -5.6704089136
259 1 4.9669300000 -5.1665171875 -6.4744772981
260 1 -5.0341846875 -2.0728956250 -6.4370169409
261 1 -5.6088366875 -2.0528737500 -4.0256758800
262 1 -4.4832203125 -1.9605312500 -4.0868093200
263 1 -3.3667118750 -1.8173143750 -4.1070921520
264 1 -2.8102650000 -2.1762703125 -5.6637606520
265 1 -6.1744130000 -0.9857212500 -6.4390105127
266 1 -6.6812540000 -0.9555137500 -4.0148091520
267 1 -6.1867889375 -1.5663556250 -5.6691279608
268 1 -5.6167809375 -1.5248875000 -4.8940686240
269 1 -5.5998308750 -0.9724584375 -4.0650629120
270 1 -5.0291456250 -1.4959700000 -5.6570968480
271 1 -4.4756550000 -1.3668759375 -4.8494878400
272 1 -3.8886378125 -0.7909043750 -6.4653801889
273 1 -4.4915515625 -0.8135734375 -4.0560612720
274 1 -3.8977350000 -1.3464240625 -5.6544637064
275 1 -3.3526293750 -1.2057468750 -4.8320803520
276 1 -3.3234700000 -0.6384828125 -4.0512172240
277 1 -2.7634084375 -1.1156215625 -5.6196681584
278 1 -6.1265620625 -0.3988384375 -5.6693455544
279 1 -5.5835486563 -0.3952775000 -4.8541117040
280 1 -5.5855535313 0.1341868750 -3.9983730640
281 1 -5.0184493750 -0.4093600000 -5.6883383672
282 1 -4.4766493750 -0.2365537500 -4.8376108560
283 1 -4.4741768750 0.3263296875 -4.0284346560
284 1 -3.9212506250 -0.2384753125 -5.6683249368
285 1 -3.3706356250 -0.0758950000 -4.8381418880
286 1 -2.7516371875 0.5126943750 -6.4692799714
287 1 -3.3455612500 0.4961259375 -4.0478367520
288 1 -2.7996628125 -0.0401109375 -5.6543160536
289 1 -6.6744360813 0.7290381250 -4.7834196880
290 1 -6.1220846875 1.2945284375 -6.4667305515
291 1 -6.7090584988 1.3334031250 -4.0687024240
292 1 -6.1741630625 0.7161246875 -5.6889276832
293 1 -5.5907632500 0.6684350000 -4.8826838160
294 1 -5.0541393750 1.3483456250 -6.4235341679
295 1 -5.5739636875 1.2093615625 -4.0234351840
296 1 -5.0235421875 0.7369125000 -5.7010274416
297 1 -4.4841475000 0.8587100000 -4.8873594880
298 1 -4.4528112500 1.3796415625 -4.0015592560
299 1 -3.8868103125 0.8717175000 -5.6677265544
300 1 -3.3538656250 1.0565368750 -4.8379735120
301 1 -2.8013962500 1.0779025000 -5.6704089136
302 1 -6.1802704063 -2.1493012500 -3.2270037520
303 1 -5.0276271875 -2.0662171875 -3.2566249760
304 1 -3.9194903125 -1.8594006250 -3.2698101120
305 1 -2.8520825000 -1.6586712500 -3.2293998720
306 1 -2.7736478125 -2.2362015625 -2.4291087440
307 1 -6.1242279688 -0.9511734375 -3.1946496560
308 1 -6.1662188125 -1.5694596875 -2.4858385040
309 1 -5.0370871875 -0.9604990625 -3.2158909360
310 1 -5.0188121875 -1.5360943750 -2.4207676560
311 1 -3.9157278125 -0.7883915625 -3.2800680960
312 1 -3.9190871875 -1.3246418750 -2.4079969840
313 1 -2.7506025000 -0.6021881250 -3.2427145280
314 1 -2.7876496875 -1.1514996875 -2.3676126480
315 1 -6.1767780000 0.1748890625 -3.2452013120
316 1 -6.1950570313 -0.3790450000 -2.4240963200
317 1 -5.0142165625 0.1617471875 -3.1967996880
318 1 -5.0242006250 -0.3883034375 -2.4241869840
319 1 -3.8903175000 0.2912175000 -3.2288817920
320 1 -3.8598681250 -0.2778740625 -2.4054065840
321 1 -6.1628500313 1.2577903125 -3.2474031520
322 1 -6.1240586563 0.7185568750 -2.3955112560
323 1 -5.0251950000 1.3634762500 -3.2138574720
324 1 -5.0439403125 0.7716753125 -2.4888174640
325 1 -2.7730162500 1.5846440625 -3.2257474080
326 1 -3.9067784375 0.8524346875 -2.4425270160
327 1 -2.7619303125 0.5027237500 -3.2618187280
328 1 -2.7588934375 1.0260740625 -2.3926229600
329 1 -2.2717706250 -1.6663306250 -4.0202101360
330 1 -6.1400197188 1.8352668750 -5.6139381936
331 1 -5.5511306875 1.7484471875 -4.8549017760
332 1 -5.0031978125 1.9366931250 -5.6545919312
333 1 -4.4215421875 1.9190900000 -4.8730345760
334 1 -3.8804946875 2.0343434375 -5.7229901480
335 1 -3.3329300000 2.1663668750 -4.8886158320
336 1 -3.3507078125 1.6217987500 -4.0283958000
337 1 -6.1408662813 1.8095340625 -2.4289662720
338 1 -5.0145793750 1.9146825000 -2.3991896240
339 1 -3.8801856250 1.4438996875 -3.1858293440
340 1 -3.9066978125 2.0602106250 -2.4877165440
341 1 -2.8105337500 -0.0552415625 -2.4186305760
342 1 -2.7727071875 2.1529293750 -2.4423197840
343 1 -2.2437131250 0.0712321875 -4.8685661360
344 1 -2.2522996875 1.1871628125 -4.8269254560
345 1 -6.7161640741 -2.0315753125 -4.0472409600
346 1 -2.7615540625 2.1588284375 -5.6832767256
347 1 -6.1190303438 -2.1264171875 -6.4478304362
348 1 -5.0178581250 0.1774018750 -6.4603187546
349 1 -3.9345134375 1.4343456250 -6.4578194071
350 1 -2.2062090625 -0.5011515625 -4.0974170080
351 1 1.6549490625 -1.8598037500 -2.4619938720
352 1 -1.6390525000 0.7266462500 -3.2027705600
353 1 -2.2257337500 -2.2251021875 -4.8588909920
354 1 -1.6831409375 -1.4763378125 -6.4701416679
355 1 -1.7081615625 -2.0736078125 -5.7329359888
356 1 -1.1174490625 -1.4256918750 -3.9824809600
357 1 -0.6083559375 -1.9693059375 -5.6764315936
358 1 -0.5313187500 -1.3849896875 -3.2461986160
359 1 -1.1708228125 -1.9544037500 -4.8577641680
360 1 -0.0552818750 -1.7867709375 -4.8599401040
361 1 0.0352600000 -1.2386821875 -4.0345739040
362 1 0.5096171875 -1.8165081250 -5.6533511296
363 1 1.0830893750 -1.8884256250 -4.9102456720
364 1 1.1019959375 -1.2945956250 -4.1044499440
365 1 1.6988090625 -1.8262503125 -5.6321564768
366 1 -2.1950156250 -1.1056778125 -4.8257468240
367 1 -1.6725253125 -0.9066550000 -5.6839256208
368 1 -1.0876312500 -0.8969934375 -4.8652633760
369 1 -1.1439075000 -0.3451287500 -4.0298464240
370 1 -0.5767643750 -0.7784746875 -5.7402953152
371 1 -0.0205996875 -0.7056300000 -4.8971252960
372 1 0.5576293750 -0.6590153125 -5.6597248088
373 1 -0.0178315625 -0.1788531250 -4.0207670720
374 1 0.5768584375 -1.2451187500 -6.4400190850
375 1 1.1387475000 -0.7390221875 -4.8907658640
376 1 1.1169518750 -0.1516825000 -4.1336308000
377 1 1.7198521875 -0.7585603125 -5.6768965704
378 1 -2.1925028125 0.6124543750 -4.0431740320
379 1 -1.6384075000 0.1776571875 -5.6207548312
380 1 -1.0464856250 0.2070046875 -4.8903384480
381 1 -1.1167503125 0.7491271875 -4.0770823680
382 1 -0.4790603125 0.3712109375 -5.7071226528
383 1 0.0482943750 0.3915015625 -4.8283890320
384 1 -0.0209759375 0.9675000000 -4.0670445680
385 1 0.5726659375 0.3995237500 -5.7084282144
386 1 1.1251756250 0.4515403125 -4.8446826480
387 1 1.6647853125 0.3084175000 -5.6894742576
388 1 1.1433296875 1.0074228125 -4.0179823920
389 1 -2.2359328125 1.7632821875 -4.0563073600
390 1 -1.7025312500 1.2872721875 -5.6601587008
391 1 -1.1353478125 1.3372731250 -4.8516378720
392 1 -0.5302571875 2.0460878125 -6.4348900930
393 1 -1.0778084375 1.9043759375 -4.0553230080
394 1 -0.5745606250 1.4510484375 -5.6497090272
395 1 0.0015453125 1.5290128125 -4.8537749520
396 1 0.0343462500 2.1047021875 -4.0409203840
397 1 0.5464628125 1.5132506250 -5.6628022040
398 1 1.1327140625 1.5244037500 -4.8990551440
399 1 1.7273100000 1.4890228125 -5.6409081432
400 1 1.6923590625 0.9314875000 -6.4196815955
401 1 -1.7067909375 -1.5079965625 -3.2482968400
402 1 -1.7294868750 -2.0587593750 -2.4342247840
403 1 -0.5753400000 -0.8091928125 -2.4811110240
404 1 0.6040693750 -1.2467984375 -3.2097387360
405 1 0.5524290625 -1.8432353125 -2.4366856640
406 1 1.6747962500 -1.2646300000 -3.2295552960
407 1 -1.6494396875 -0.9711550000 -2.3969359760
408 1 -0.5762134375 -0.2068031250 -3.2154764720
409 1 -0.4974831250 0.3693296875 -2.4340046000
410 1 0.5882534375 -0.1233025000 -3.2739936080
411 1 1.6501250000 -0.2253871875 -3.3070471120
412 1 -1.6834500000 1.2902418750 -2.3856288800
413 1 -1.6953690625 -0.3861937500 -3.1685772800
414 1 -0.5682450000 0.9149862500 -3.2185460960
415 1 -1.6788543750 0.1865259375 -2.3675219840
416 1 0.5991646875 1.5098375000 -2.4547278000
417 1 0.5391796875 0.9616412500 -3.2781382480
418 1 1.6913378125 0.9133334375 -3.2146734480
419 1 1.6878843750 0.3217071875 -2.4575383840
420 1 -1.6607271875 1.8096953125 -3.2796018240
421 1 -0.5587581250 1.4796703125 -2.3736353280
422 1 0.5748293750 2.1181262500 -3.1767240880
423 1 1.0924821875 2.0683671875 -4.0543645600
424 1 1.7123406250 1.4881628125 -2.4691692800
425 1 1.6734390625 2.0791709375 -3.2354484560
426 1 2.2270103125 1.9349059375 -4.0558928960
427 1 -0.5752728125 -1.9177731250 -2.4232026320
428 1 0.5030731250 -0.6729365625 -2.4390947360
429 1 0.6099550000 0.4210909375 -2.4175296560
430 1 1.7011203125 -0.7281646875 -2.3739202720
431 1 -0.5324206250 1.9929559375 -3.2339460240
432 1 -0.5059487500 -1.3776125000 -6.4412025092
433 1 2.2333528125 0.2787743750 -4.9174081280
434 1 2.1892509375 -1.4151300000 -4.0952669760
435 1 -1.6721356250 0.7040578125 -6.4606156144
436 1 0.5416790625 2.1102250000 -6.4535440814
437 1 6.7186559375 -0.4262106250 -4.8955710560
438 1 6.7054468750 0.1196743750 -4.0893479120
439 1 2.2534821875 -1.9904028125 -4.8654965120
440 1 6.6829659375 -1.4873431250 -4.8786557440
441 1 2.8241056250 -2.0667009375 -5.6718828512
442 1 3.3761718750 -2.0780959375 -4.8130927200
443 1 3.9198128125 -1.6213284375 -6.4044705077
444 1 3.3796925000 -1.5247934375 -3.9935549200
445 1 4.4907587500 -1.7611993750 -4.0169721360
446 1 5.5721415625 -1.9330784375 -4.1020667760
447 1 2.2691234375 -0.8200637500 -4.8130927200
448 1 2.7583693750 -0.3368378125 -6.4447424203
449 1 2.8035059375 -0.3927243750 -3.2076275600
450 1 2.7723309375 -0.9405309375 -5.7257282008
451 1 3.3255259375 -1.0209946875 -4.9165014880
452 1 3.3704340625 -0.4821778125 -4.0249246640
453 1 3.9425356250 -1.0366359375 -5.6513448648
454 1 4.4800490625 -1.2195203125 -4.8640847440
455 1 4.4446412500 -0.6490178125 -4.0836490320
456 1 5.0690281250 -1.2300418750 -5.6603866560
457 1 5.6015562500 -1.3141740625 -4.7904267200
458 1 5.6115671875 -0.7335800000 -4.0260773920
459 1 6.1054893750 -1.4573775000 -5.6943895416
460 1 2.2771187500 -0.2410150000 -4.0382134160
461 1 2.2422887500 0.8029712500 -4.0344573360
462 1 2.8413325000 0.2230490625 -5.6491119400
463 1 3.3846106250 0.0699556250 -4.8630744880
464 1 3.3503046875 0.6372062500 -4.0752820400
465 1 3.9433418750 0.0377325000 -5.6963932160
466 1 4.4826290625 -0.0427984375 -4.7941439440
467 1 5.0993968750 0.4294087500 -6.4245185199
468 1 4.5144759375 0.5378493750 -4.0157287440
469 1 4.9830953125 -0.1675790625 -5.7017903144
470 1 5.5531006250 -0.2074615625 -4.8785132720
471 1 6.1300531250 0.2547750000 -6.4665144344
472 1 5.6185412500 0.3444703125 -4.0264659520
473 1 6.1439475000 -0.2913384375 -5.6430918504
474 1 2.2794434375 1.3697246875 -4.8406804800
475 1 2.8292253125 1.3173721875 -5.6959204680
476 1 3.3571175000 1.2487468750 -4.7848185040
477 1 3.9787765625 1.7333971875 -6.4287733814
478 1 3.4426740625 1.8141968750 -4.0025565600
479 1 3.8577718750 1.1292337500 -5.6916411272
480 1 4.4326818750 1.0456928125 -4.9044431760
481 1 5.0014240625 1.5264462500 -6.4652516015
482 1 4.5245137500 1.5926528125 -4.0447800800
483 1 5.0350043750 1.0005562500 -5.6216472240
484 1 5.6158537500 0.8720534375 -4.8890043920
485 1 5.5838456250 1.4373421875 -4.0861746720
486 1 6.2132043750 0.8146484375 -5.6340021368
487 1 2.7472162500 -1.5266478125 -3.2980325200
488 1 2.8253418750 -2.0403634375 -2.3677421680
489 1 3.9281037500 -1.6806550000 -3.2080031680
490 1 5.0763246875 -1.7761015625 -3.1984057360
491 1 6.1306443750 -1.9887500000 -3.2677118880
492 1 2.7758918750 0.1971146875 -2.4775103680
493 1 2.8122940625 -0.9894568750 -2.4564763200
494 1 3.9437181250 -0.4757950000 -3.1934192160
495 1 3.8889200000 -1.0935034375 -2.4847375840
496 1 5.0017600000 -0.7241200000 -3.2794464000
497 1 5.0599040625 -1.2338446875 -2.3644135040
498 1 6.1625584375 -0.8918871875 -3.2504209680
499 1 6.1898634375 -1.4348025000 -2.4148485920
500 1 2.8044196875 1.8572506250 -3.3073709120
501 1 2.8277740625 0.7893187500 -3.2142071760
502 1 3.9016318750 0.5655978125 -3.2655748080
503 1 3.9436106250 0.0484287500 -2.3416050320
504 1 5.0523521875 0.3894590625 -3.2117462960
505 1 5.0595278125 -0.1787321875 -2.4264665360
506 1 6.1955609375 0.2885434375 -3.2117074400
507 1 6.1199481250 -0.3165471875 -2.4687936720
508 1 3.9720981250 1.6845518750 -3.2032109280
509 1 3.9209012500 1.1210771875 -2.4216354400
510 1 5.0896278125 1.5948968750 -3.1974472880
511 1 5.0150496875 0.9859765625 -2.4945422480
512 1 6.1689009375 1.3445428125 -3.2642148480
513 1 6.1409106250 0.8219046875 -2.3651517680
514 1 6.7130928125 1.8875656250 -4.8696411520
515 1 4.5302112500 2.1454446875 -4.8717264240
516 1 5.1044628125 2.1093112500 -5.6706446400
517 1 5.6419090625 2.0468134375 -4.8109556400
518 1 6.1517143750 1.8886540625 -5.7080785104
519 1 5.0683831250 2.1414940625 -2.3677939760
520 1 6.2005059375 1.8902665625 -2.4248216320
521 1 2.8255703125 1.3425271875 -2.3938145440
522 1 6.1979125000 -0.8618140625 -6.4378309741
523 1 -2.8068653125 6.6514818750 -5.6451576944
524 1 -6.1209828125 6.3176540625 -5.6285765440
525 1 -5.5567220313 6.2975918750 -4.8474414240
526 1 -5.0271837500 6.3040956250 -5.7180463696
527 1 -4.4800221875 6.4698471875 -4.8618570000
528 1 -3.9252953125 6.4634912500 -5.6841160152
529 1 -3.3846375000 6.6658331250 -4.8409265680
530 1 -6.1855849375 6.3365606250 -2.4204568080
531 1 -5.0092178125 6.3268990625 -2.3994227600
532 1 -3.8901562500 6.4626446875 -2.4480186640
533 1 -2.8251134375 6.6639115625 -2.4179700240
534 1 -3.9307106250 2.6523206250 -3.2162406400
535 1 -6.1666474688 2.3725921875 -6.4657706788
536 1 -5.5971957813 2.3242037500 -4.1010824240
537 1 -3.9075309375 2.6401731250 -6.4326466770
538 1 -4.4657112500 2.4481243750 -4.0318928400
539 1 -6.6965716750 2.9703056250 -4.8881366080
540 1 -6.0908304063 2.9417240625 -5.6335824920
541 1 -5.5592173750 2.9426378125 -4.7890279040
542 1 -5.5625901875 3.5325843750 -4.0467746880
543 1 -5.0169040625 2.9971000000 -5.6390067896
544 1 -4.4267693750 3.0153750000 -4.8278191440
545 1 -4.4389303125 3.6136931250 -4.0870424560
546 1 -3.9161443750 3.2182678125 -5.6740639680
547 1 -3.3147490625 3.1995762500 -4.8937707280
548 1 -2.8165537500 3.9383431250 -6.4142562618
549 1 -3.3438815625 3.7331793750 -4.0491319520
550 1 -2.7665796875 3.3344350000 -5.7102570368
551 1 -6.6876682563 4.1015012500 -4.8091423600
552 1 -6.0963008125 4.6249725000 -6.4461280253
553 1 -6.1825104375 4.0194921875 -5.7246946312
554 1 -5.6349094688 4.0862228125 -4.8558213680
555 1 -5.0042728125 4.6230778125 -6.4604379130
556 1 -5.5742203438 4.6411243750 -4.0094988320
557 1 -5.0637471875 4.0680821875 -5.6376947520
558 1 -4.4983106250 4.1877162500 -4.8466772560
559 1 -4.4585221875 4.7614168750 -4.0769010400
560 1 -3.9116025000 4.3015050000 -5.5969762544
561 1 -3.3115643750 4.3097421875 -4.8372352480
562 1 -3.3435590625 4.8985734375 -4.1051364000
563 1 -2.7994881250 4.5348068750 -5.6698662248
564 1 -6.1935305313 5.7572565625 -6.4489160728
565 1 -6.6837767563 5.7854081250 -4.0232409040
566 1 -6.1682344375 5.1827362500 -5.6637282720
567 1 -5.6029954063 5.1594356250 -4.8864528480
568 1 -5.6274032813 5.7125365625 -4.0705804640
569 1 -5.0080353125 5.2033762500 -5.6671087440
570 1 -4.4864587500 5.3567787500 -4.8298655600
571 1 -4.4923981250 5.9060768750 -4.0267897520
572 1 -3.9123281250 5.3609309375 -5.6462780424
573 1 -3.3732290625 5.5183512500 -4.8091035040
574 1 -3.3423228125 6.0918100000 -4.0491319520
575 1 -2.8105337500 5.5989493750 -5.6240692480
576 1 -6.1035490000 2.3841618750 -3.2105806160
577 1 -5.0514787500 2.4705515625 -3.2445537120
578 1 -3.3370150000 2.6744521875 -3.9747615680
579 1 -2.7542440625 2.7381728125 -3.1995455120
580 1 -6.1449029063 3.4852575000 -3.2736050480
581 1 -6.1587986250 2.9564112500 -2.4146672640
582 1 -5.0021228125 3.5081281250 -3.2453696880
583 1 -5.0110856250 2.9989275000 -2.3480162720
584 1 -3.9227153125 3.7799150000 -3.2327544400
585 1 -3.8580137500 3.2178512500 -2.4226327440
586 1 -2.8248984375 3.9586337500 -3.2169141440
587 1 -2.7591890625 3.3498478125 -2.4974046400
588 1 -6.1684427188 4.5816768750 -3.2576481840
589 1 -6.1365555313 4.0304437500 -2.4178405040
590 1 -4.9932406250 4.6527881250 -3.2415488480
591 1 -5.0702509375 4.0730540625 -2.4682755920
592 1 -3.8844856250 4.8392603125 -3.2598759280
593 1 -3.9349031250 4.3069068750 -2.3659418400
594 1 -2.8261884375 5.0787703125 -3.2164608240
595 1 -2.7752334375 4.4994931250 -2.4012489920
596 1 -6.1310165938 5.7519084375 -3.1805837840
597 1 -6.1490174688 5.1333265625 -2.4685216800
598 1 -5.0524059375 5.7754375000 -3.2406940160
599 1 -5.0140150000 5.2087109375 -2.4457261600
600 1 -3.9065096875 5.9168000000 -3.2698101120
601 1 -3.9400362500 5.3777815625 -2.4069219680
602 1 -2.7576303125 6.1387203125 -3.2744080720
603 1 -2.8252343750 5.6061518750 -2.3605408560
604 1 -2.2534687500 5.0399090625 -4.0316726560
605 1 -6.6738590750 2.4399946875 -4.0143428800
606 1 -2.7814818750 2.7444615625 -6.4499662210
607 1 -2.1952037500 4.5093965625 -4.8938743440
608 1 1.1847171875 2.6540406250 -4.8294381440
609 1 -2.2336618750 2.3534975000 -4.8174445920
610 1 -2.2238928125 2.9236506250 -4.0305069760
611 1 -1.6935818750 2.3710065625 -5.6633591400
612 1 -1.1343400000 2.4662650000 -4.8278580000
613 1 -1.0896200000 3.0551903125 -4.0591827040
614 1 -0.5829859375 2.5954128125 -5.6421282216
615 1 0.0105887500 2.6371900000 -4.9065154960
616 1 0.0236500000 3.1665737500 -4.0479015120
617 1 0.6247631250 2.6541078125 -5.6288032040
618 1 1.7025581250 2.5497790625 -5.7145182448
619 1 1.1057046875 3.7833953125 -4.8577900720
620 1 -2.2249409375 3.4722500000 -4.8809741520
621 1 -2.2255725000 3.9822703125 -3.9697750480
622 1 -1.6370368750 3.4602234375 -5.6553107672
623 1 -1.1122487500 3.6334328125 -4.8156183600
624 1 -1.1256593750 4.2033978125 -4.0258960640
625 1 -0.5475512500 3.7081184375 -5.6376960472
626 1 0.0009809375 4.3429059375 -4.0908373920
627 1 0.0251281250 3.7567621875 -4.8205271680
628 1 0.5365728125 3.7624328125 -5.7006647856
629 1 1.1685653125 4.3410784375 -4.0159877840
630 1 1.6446559375 3.6757071875 -5.7003332144
631 1 -1.6977340625 5.2307081250 -6.4384134255
632 1 -1.6527184375 4.6304953125 -5.7217972688
633 1 -1.1161590625 4.7530587500 -4.8559249840
634 1 -1.1479253125 5.2919696875 -3.9841258640