ITEM: TIMESTEP
183000
ITEM: NUMBER OF ATOMS
2304
ITEM: BOX BOUNDS pp pp pp
-6.7187500000 6.7187500000
-6.7187500000 6.7187500000
-6.4760000000 6.4760000000
ITEM: ATOMS id type x y z
1 1 -6.5910873000 -5.4162356563 -4.8351111200
2 1 -5.6535244375 -6.2845480938 -4.8942370000
3 1 -5.0727906250 -6.3883917500 -5.6655286000
4 1 -5.5910521563 -5.8030730625 -4.1414279040
5 1 -3.9270421875 -5.1533887500 -5.6027787504
6 1 -4.4968325000 -6.2478529688 -4.8735008480
7 1 -3.9285337500 -6.3039935000 -5.6474761024
8 1 -4.4960665625 -5.7089904063 -4.0100039600
9 1 -3.9744900000 -5.7056350625 -6.4123143684
10 1 -3.3462196875 -4.5885031250 -4.0644023600
11 1 -3.3666715625 -6.3386609063 -4.8559767920
12 1 -6.0809645938 -5.3683215625 -5.5907631800
13 1 -5.1414159375 -5.2203343750 -5.6017412952
14 1 -6.0970869063 -4.2915343750 -5.6423924424
15 1 -5.5900470313 -4.2567043750 -4.7917737280
16 1 -4.6100031250 -5.1772268750 -4.9028630320
17 1 -4.4282206250 -4.6545484375 -4.0082165840
18 1 -3.9443093750 -3.4606668750 -3.2572466720
19 1 -3.4207575000 -5.7666574375 -4.0643764560
20 1 -2.8305690625 -5.2896181250 -5.6514018536
21 1 -6.2589832500 -3.7636421875 -6.4391518190
22 1 -6.6915602938 -3.8204290625 -4.0593899360
23 1 -4.4678612500 -4.0675850000 -4.8115902880
24 1 -5.6088407188 -3.6317128125 -4.0655291840
25 1 -3.9748125000 -4.0484096875 -5.6727765392
26 1 -3.4015284375 -5.1785303125 -4.8121342720
27 1 -4.4792159375 -3.4995953125 -4.0896717120
28 1 -3.3639975000 -4.0333865625 -4.8706125520
29 1 -3.9075981250 -4.5783981250 -3.2045449840
30 1 -2.8399081250 -4.1631390625 -5.6960927296
31 1 -3.9209012500 -4.0012171875 -2.4273084160
32 1 -2.7826375000 -4.7299193750 -6.4639565439
33 1 -6.1310112188 -3.1812609375 -5.6151517960
34 1 -5.5668969063 -3.0768515625 -4.8584376720
35 1 -5.5648624688 -2.4980043750 -4.0525383280
36 1 -5.0110856250 -2.4643971875 -6.4197277046
37 1 -5.0171325000 -2.4992675000 -3.2342957280
38 1 -4.9889003125 -3.0448165625 -5.6373463432
39 1 -4.4402203125 -2.8787021875 -4.8204753600
40 1 -3.9334518750 -2.3398853125 -6.4594679377
41 1 -4.4530128125 -2.3355853125 -4.0132808160
42 1 -3.9129731250 -2.9358787500 -5.6966639128
43 1 -3.3658921875 -2.9964146875 -4.8790961120
44 1 -3.8624750000 -2.3342415625 -3.2446573280
45 1 -2.7708931250 -2.9536431250 -5.6659443592
46 1 -6.1464119375 -5.9648914688 -3.2645256960
47 1 -5.0775071875 -5.8063168750 -3.1999470240
48 1 -5.0260146875 -6.3643574375 -2.4052123040
49 1 -3.9478434375 -5.7246491250 -3.1968385440
50 1 -3.8717603125 -6.3025382188 -2.4414260960
51 1 -2.8167150000 -4.7488528125 -3.2467296480
52 1 -2.8397603125 -5.7729287188 -3.2655489040
53 1 -6.1083905313 -4.8614590625 -3.2821404160
54 1 -6.1827630625 -5.3925399688 -2.4273084160
55 1 -5.5784397188 -4.8714968750 -4.1873168400
56 1 -5.0479984375 -5.1973831250 -2.4780932080
57 1 -5.0589231250 -4.6147734375 -3.2743692160
58 1 -2.8271021875 -4.1651009375 -2.4557769120
59 1 -6.1502416250 -3.7672434375 -3.2356168320
60 1 -6.1507818125 -4.3210968750 -2.4295620640
61 1 -5.0364018750 -3.5891562500 -3.2488278720
62 1 -5.0391700000 -4.1240225000 -2.3539482880
63 1 -3.3251228125 -3.5053465625 -3.9732591360
64 1 -6.1226114375 -2.6021315625 -3.2171602320
65 1 -6.1087654375 -3.1874018750 -2.4606598160
66 1 -4.9920446875 -3.0292156250 -2.3865225680
67 1 -3.9072084375 -2.8991003125 -2.4379031520
68 1 -2.7457515625 -2.4388525000 -3.2309411600
69 1 -2.7463025000 -3.5819403125 -3.2011904160
70 1 -2.2623240625 -6.4814316563 -4.8214856160
71 1 -2.2710046875 -5.3099087500 -4.8230398560
72 1 -2.7522956250 -5.2700665625 -2.3606056160
73 1 -6.2153678125 -6.5148695313 -5.7028795776
74 1 -3.3177590625 -2.4326309375 -4.0609053200
75 1 -2.7921243750 -6.3352477813 -5.6661010784
76 1 -6.2104725313 -6.4990912188 -2.4320618000
77 1 -2.7923125000 -6.3526856250 -2.4430450960
78 1 -3.9324575000 -5.1416846875 -2.4266867200
79 1 -2.8416818750 -3.0059015625 -2.4404935520
80 1 -5.0330828125 -4.0800550000 -5.6922705944
81 1 -3.9229034375 -4.6308581250 -6.4571281589
82 1 -2.7618228125 -3.5497978125 -6.4001536061
83 1 -2.2632378125 -4.2377306250 -4.9212289680
84 1 -2.2610206250 -5.8927186563 -4.0720699440
85 1 -6.6575495781 -2.7051703125 -4.0663451600
86 1 -5.0028081250 -5.7691904063 -6.4302337194
87 1 -6.0814590938 -2.6338037500 -6.4532037029
88 1 -1.6641537500 -4.8546328125 -3.2119146720
89 1 -1.1467025000 -6.6021948719 -4.8183253280
90 1 -2.2110196875 -4.7415159375 -4.0265436640
91 1 -1.7129050000 -6.5439375313 -5.6691305512
92 1 -1.1619943750 -5.5331230938 -4.9073962320
93 1 -1.0993487500 -6.0528425938 -4.0133067200
94 1 -0.5402009375 -6.1470972500 -6.4028297483
95 1 0.0127521875 -5.7237326875 -4.8690194560
96 1 0.5031268750 -6.3288797500 -6.4481599350
97 1 0.0024859375 -6.2451627813 -4.0074653680
98 1 1.0872146875 -6.4282379688 -4.0701141920
99 1 -1.7380600000 -5.4435393125 -5.6876156456
100 1 -0.5008156250 -4.4739618750 -5.6483309344
101 1 -1.1301609375 -4.9962506250 -4.0580817840
102 1 -1.6711815625 -4.8460193750 -6.4169858958
103 1 -0.5522543750 -5.5648974063 -5.6361392168
104 1 -0.0353137500 -5.1434987500 -4.0852680320
105 1 0.6112584375 -5.7626329063 -5.6431915808
106 1 1.1566462500 -5.8445559688 -4.8100878560
107 1 1.7252675000 -5.4052948438 -6.4601823700
108 1 1.1100315625 -5.2730765625 -4.0276575360
109 1 -2.2174831250 -3.6959575000 -4.0511654160
110 1 -1.6299553125 -4.2847215625 -5.6240200304
111 1 -1.0876043750 -4.4289328125 -4.8406675280
112 1 -1.6416728125 -3.7160734375 -3.2096351200
113 1 0.0348703125 -4.5460406250 -4.8019799040
114 1 1.1517012500 -4.1719003125 -4.0208318320
115 1 0.0359587500 -3.9637937500 -4.0246656240
116 1 0.5423643750 -4.6984084375 -5.7161346544
117 1 1.7045737500 -4.2418693750 -6.4366102481
118 1 1.1245037500 -3.6683165625 -4.9189882720
119 1 1.1053553125 -4.7313437500 -4.8646416800
120 1 -2.2293753125 -3.1473581250 -4.8532309680
121 1 -1.6487140625 -3.1981518750 -5.6516647792
122 1 -1.0868921875 -3.2412862500 -4.8062022560
123 1 -0.4917453125 -2.8010871875 -6.4072751338
124 1 -1.0656340625 -2.6753793750 -4.0129958720
125 1 -0.5849478125 -3.4051700000 -5.7010222608
126 1 0.5696425000 -2.9462121875 -6.4488347342
127 1 -0.0158562500 -3.4297203125 -4.8818289840
128 1 0.5599406250 -3.5191737500 -5.6629783512
129 1 1.1456409375 -3.1175806250 -4.0887780240
130 1 1.6887175000 -3.1300103125 -3.2137668080
131 1 1.7620728125 -3.6938478125 -5.6139718688
132 1 -1.7169765625 -6.0066874688 -3.2655359520
133 1 -0.5714565625 -6.1786485000 -3.1999340720
134 1 0.5806478125 -6.3262097188 -3.1915929840
135 1 1.6661828125 -6.5276472500 -3.2592024240
136 1 -1.6666396875 -5.4555766250 -2.4723425200
137 1 -0.5543909375 -5.0178715625 -3.2221208480
138 1 -0.5455356250 -4.4877084375 -2.3579634080
139 1 0.5270725000 -5.2216109375 -3.2658208960
140 1 0.5331328125 -5.7534215000 -2.4103283440
141 1 1.6715981250 -5.3912123438 -3.2692790800
142 1 1.6642746875 -5.9368191875 -2.4644936080
143 1 -1.6532693750 -3.1812609375 -2.3623411840
144 1 -1.7211153125 -4.2944234375 -2.4273731760
145 1 -1.1262775000 -3.8400478125 -4.0934536960
146 1 -0.5809837500 -3.9804562500 -3.2730999200
147 1 0.5740231250 -4.1444609375 -3.2090004720
148 1 0.5852837500 -4.7078415625 -2.3900714160
149 1 1.6991853125 -4.2172115625 -3.1871763520
150 1 1.6995615625 -4.8394350000 -2.4776398880
151 1 -1.6848206250 -2.6675050000 -3.2689811840
152 1 0.0598103125 -2.9047037500 -4.0034372960
153 1 -0.5263200000 -3.4311581250 -2.4318286640
154 1 0.6283778125 -2.9541940625 -3.1995973200
155 1 0.5320981250 -3.5563284375 -2.4679388400
156 1 1.6696228125 -5.9913525938 -5.7131997312
157 1 2.2092996875 -4.3544621875 -4.0816285200
158 1 0.0325321875 -2.3738015625 -4.8798343760
159 1 0.6418959375 -2.3800768750 -5.6264485304
160 1 1.1685921875 -2.5127050000 -4.7939626160
161 1 1.6968337500 -2.6116587500 -5.6753371496
162 1 -2.2148225000 -2.5645065625 -4.0952151680
163 1 -0.5300556250 -2.8577262500 -3.2215509600
164 1 0.6024434375 -2.4028265625 -2.3840616880
165 1 1.6906525000 -3.6820496875 -2.3612402640
166 1 -1.6783034375 -6.5447612500 -2.4022333440
167 1 -0.5618084375 -5.5900833125 -2.4401438480
168 1 1.7279146875 -2.5717225000 -2.3932446560
169 1 1.6623665625 -4.8350275000 -5.6884640016
170 1 2.2159512500 -5.9813483750 -4.8345153280
171 1 2.2237046875 -4.9168753125 -4.8806503520
172 1 -0.5507225000 -2.2704806250 -2.4885066160
173 1 0.6144700000 -4.0953871875 -6.4321425852
174 1 6.6861640625 -6.6181845563 -4.8225606320
175 1 6.7060650000 -4.8910887500 -4.0018960080
176 1 2.2409987500 -6.5468628750 -4.0394956640
177 1 2.2907309375 -5.4317626875 -3.9867551200
178 1 2.2396281250 -3.2063353125 -4.0746603440
179 1 2.2617193750 -2.6161200000 -4.8579066400
180 1 6.2524821875 -5.5734409688 -5.6489591064
181 1 6.1775546875 -4.3337415625 -5.8187753688
182 1 6.6941325000 -4.3657496875 -4.8986795360
183 1 6.6801440625 -6.0185393438 -4.0597655440
184 1 3.3847046875 -6.5560581563 -4.0436144000
185 1 4.4626475000 -6.3978665313 -4.0282144720
186 1 4.9986828125 -6.3350757813 -6.4243235923
187 1 5.5450784375 -6.1617078438 -4.0652442400
188 1 6.1647353125 -6.6415199844 -5.6833544376
189 1 3.3573056250 -4.8367609375 -4.8158644480
190 1 2.7649134375 -6.0124225938 -5.6680490592
191 1 3.4036515625 -5.4365007500 -4.0809938720
192 1 3.8936231250 -5.8595616250 -5.6350175736
193 1 4.5091278125 -5.8688926250 -4.9016973520
194 1 5.0108571875 -4.6006909375 -5.6359293944
195 1 4.5014012500 -5.3056087500 -4.0955907760
196 1 5.0749809375 -5.7348750625 -5.6615510408
197 1 5.6854196875 -5.6191755000 -4.9035753920
198 1 5.5937087500 -5.0935515625 -4.0331621360
199 1 2.7774371875 -4.3257328125 -3.2586584400
200 1 3.3607321875 -4.2850306250 -4.0141097440
201 1 3.3277296875 -6.0136467500 -4.8579714000
202 1 3.4259712500 -3.7247943750 -4.8382325520
203 1 3.9135375000 -4.7964484375 -5.6421813248
204 1 4.4907721875 -4.7120475000 -4.8214597120
205 1 4.5322268750 -4.1415853125 -4.0400785040
206 1 5.6584237500 -4.5759256250 -4.9149990560
207 1 5.6206375000 -4.0089303125 -4.0948913680
208 1 6.1590109375 -4.9822487500 -6.3959197268
209 1 2.3170281250 -3.7759912500 -4.8421699600
210 1 3.9675293750 -3.7025150000 -5.7025259880
211 1 3.9748796875 -3.1240440625 -6.4740940873
212 1 3.3840596875 -2.6196003125 -4.8849892720
213 1 4.4950453125 -3.0220265625 -4.0056002800
214 1 4.5366478125 -2.4787484375 -4.8336864000
215 1 5.0853278125 -2.4001525000 -5.6630962144
216 1 5.6238893750 -3.4202737500 -4.8362379440
217 1 6.6981234375 -3.2638343750 -4.8829428560
218 1 5.6384556250 -2.8624562500 -4.0276704880
219 1 6.1496718750 -3.4073603125 -5.7806097104
220 1 2.8117028125 -6.5752160000 -3.2395412880
221 1 3.9136181250 -6.4266415938 -3.1935875920
222 1 5.0426234375 -6.3375469375 -3.2193620720
223 1 6.1586750000 -6.1645041875 -3.2675176080
224 1 2.7236737500 -6.0129170938 -2.4309997360
225 1 3.9717218750 -5.3367837500 -3.2195822560
226 1 3.8967137500 -5.8892759688 -2.3714075840
227 1 5.0260684375 -5.1728596875 -3.2121996160
228 1 5.0726562500 -5.7493553125 -2.4495729040
229 1 6.1540121875 -5.0217281250 -3.2244133520
230 1 6.1817471875 -5.5949382813 -2.4581212240
231 1 2.7924871875 -4.8899465625 -2.4436926960
232 1 2.8784200000 -5.4548026250 -3.2308116400
233 1 3.9572765625 -4.2512218750 -3.2688128080
234 1 3.8836121875 -4.7608525000 -2.4096677920
235 1 5.0948953125 -4.0666309375 -3.2210976400
236 1 5.0549725000 -4.6163993750 -2.3947600400
237 1 6.1544690625 -3.8566028125 -3.2369508880
238 1 6.2166040625 -4.4404890625 -2.4582507440
239 1 3.3407909375 -3.1546009375 -4.0446376080
240 1 2.7654509375 -3.2534606250 -3.2291149280
241 1 6.2259296875 -2.7816565625 -3.2525321440
242 1 3.9577334375 -3.6579025000 -2.4724331840
243 1 3.8939321875 -3.1019259375 -3.2639169520
244 1 5.0156409375 -3.4980365625 -2.4500391760
245 1 5.0722800000 -2.9319684375 -3.2537107760
246 1 6.1690621875 -3.3256871875 -2.3883488000
247 1 2.8205446875 -2.6820309375 -5.6782694824
248 1 4.4919009375 -3.5710156250 -4.8290625360
249 1 3.9720309375 -2.5699084375 -5.6503579224
250 1 5.6624550000 -2.3286784375 -4.8752234640
251 1 2.8914946875 -3.7944543750 -2.3979462320
252 1 4.0020100000 -2.5603946875 -2.3964956080
253 1 5.1201040625 -2.3729684375 -2.4529533760
254 1 2.8216734375 -2.6905234375 -2.4355458880
255 1 2.8364009375 -5.4387125625 -6.4699809466
256 1 2.8098215625 -4.8886296875 -5.6440386416
257 1 2.8766462500 -3.7979212500 -5.6812393760
258 1 5.0552009375 -3.5193081250 -5.6389174208
259 1 6.2096703125 -2.2718512500 -5.6934297984
260 1 6.1351190625 -6.7009617063 -2.4000703600
261 1 3.9455725000 -6.4510508125 -6.4134547920
262 1 5.0633843750 -5.1740421875 -6.4204109226
263 1 -3.8845125000 -1.8005175000 -2.4225809360
264 1 -6.6937137875 -2.1268337500 -4.8350334080
265 1 -6.6774227000 -1.5754393750 -4.0097967280
266 1 -6.1625221563 -2.0692540625 -5.6905997864
267 1 -5.5949866563 -1.9545650000 -4.8752493680
268 1 -5.5261839688 -1.3917756250 -4.0404152560
269 1 -5.0362540625 -1.8732546875 -5.6632257344
270 1 -4.4504462500 -1.8118990625 -4.9087432400
271 1 -4.4477587500 -1.2803787500 -4.0390034880
272 1 -3.8407331250 -1.7947931250 -5.6480926176
273 1 -3.3134993750 -1.8530715625 -4.8179885760
274 1 -3.3462196875 -1.2487871875 -4.0993598080
275 1 -6.1008601563 -0.9413640625 -5.7083271888
276 1 -5.5741975000 -0.8250490625 -4.8458094720
277 1 -5.5759699063 -0.2876162500 -3.9985802960
278 1 -5.0269553125 -0.7205993750 -5.6953648272
279 1 -4.4690975000 -0.7185837500 -4.8587873760
280 1 -4.4285431250 -0.1504059375 -4.0952540240
281 1 -3.9211028125 -0.6856215625 -5.6633824536
282 1 -3.3330106250 -0.6667150000 -4.8519228160
283 1 -2.7593503125 -0.2179562500 -6.4055795874
284 1 -3.3033003125 -0.1184918750 -4.0290952080
285 1 -2.8067712500 -0.8233156250 -5.6779184832
286 1 -6.6445745969 0.0774403125 -4.8747571920
287 1 -6.7011015906 0.6459271875 -4.1205492800
288 1 -6.0900859688 0.2189909375 -5.6830448848
289 1 -5.5328046250 0.2744878125 -4.8491640400
290 1 -5.6281732500 0.8233693750 -4.0883765120
291 1 -4.9935900000 0.3575584375 -5.6796087192
292 1 -4.4381240625 0.4486781250 -4.8282854160
293 1 -4.4765553125 1.0033512500 -4.0191221680
294 1 -3.9160771875 0.4266271875 -5.6764678592
295 1 -3.3205003125 0.4102065625 -4.9151803840
296 1 -2.8200071875 0.9247553125 -6.4759430859
297 1 -3.3560828125 0.9354515625 -4.0293024400
298 1 -2.7291025000 0.3693296875 -5.6598465576
299 1 -6.1268496250 1.8671137500 -6.4194020914
300 1 -6.5821309375 1.8080021875 -3.9626644000
301 1 -6.1417504688 1.2898521875 -5.5958584968
302 1 -5.5542441563 1.4370465625 -4.8555364240
303 1 -5.0576868750 2.0560853125 -6.4294564699
304 1 -5.6655389063 1.9980756250 -4.0075689840
305 1 -5.0141359375 1.4672809375 -5.6772890160
306 1 -4.4719731250 1.5442912500 -4.8605747520
307 1 -4.5657400000 2.0785528125 -3.9943708960
308 1 -3.8793256250 1.5905162500 -5.6588531392
309 1 -3.3485846875 1.5059406250 -4.8322875840
310 1 -2.7750318750 1.4826265625 -5.6612026320
311 1 -6.0981484688 -1.4727903125 -3.2532445040
312 1 -6.1620518438 -2.0316156250 -2.4247309680
313 1 -4.9869518750 -1.2806878125 -3.1917095520
314 1 -5.0024050000 -1.9048328125 -2.4857348880
315 1 -3.8729562500 -1.2191440625 -3.2303842240
316 1 -2.7910225000 -1.3945706250 -3.2825937360
317 1 -6.1644826875 -0.2761675000 -3.2562364160
318 1 -6.1507831563 -0.8807609375 -2.4903198960
319 1 -4.9805421875 -0.1436737500 -3.2570394400
320 1 -5.0654000000 -0.7089893750 -2.4370742240
321 1 -3.9073428125 -0.1464015625 -3.2481155120
322 1 -3.8758721875 -0.6786878125 -2.3913407120
323 1 -2.7714709375 -0.2590481250 -3.2085471520
324 1 -2.7648193750 -0.8486318750 -2.4445345760
325 1 -6.0727999688 0.2722303125 -2.4659183280
326 1 -5.0717156250 0.9376821875 -3.2790707920
327 1 -5.0019615625 0.4039715625 -2.4172835680
328 1 -3.9111590625 0.9801043750 -3.2230663440
329 1 -3.8921853125 0.4191962500 -2.4366209040
330 1 -6.1688216563 0.9149862500 -3.2399557520
331 1 -5.2142740625 2.0119834375 -3.2104381440
332 1 -4.9854065625 1.4635453125 -2.3972468240
333 1 -2.8490590625 2.0184603125 -3.3035241680
334 1 -3.9425356250 1.5814190625 -2.4854628960
335 1 -2.7865209375 0.9438903125 -3.1977581360
336 1 -2.7742525000 1.5119875000 -2.4113256480
337 1 -2.7510459375 -1.9145212500 -5.6583208120
338 1 -2.2656028125 0.7791331250 -4.0737407520
339 1 -3.4244125000 2.0648062500 -4.0449225520
340 1 -6.1291272813 1.3889671875 -2.4476171520
341 1 -4.0030715625 2.1612203125 -3.2344641040
342 1 -2.7505487500 -1.9065662500 -2.3645689280
343 1 -2.7736612500 0.3276868750 -2.4833776240
344 1 -6.6400147156 -1.0211290625 -4.8529719280
345 1 -6.7183029801 -0.4790065625 -4.0265695680
346 1 -4.9538150000 -1.3082750000 -6.4567743102
347 1 -6.1619927188 -0.3490525000 -6.4758758118
348 1 -3.9145184375 1.0143700000 -6.4423858039
349 1 -0.5174915625 -2.2062090625 -5.6615238416
350 1 -2.1889956250 -1.9578034375 -4.8096992960
351 1 -2.1725884375 0.2092353125 -4.8686308960
352 1 1.6958393750 -2.0571200000 -3.2893546800
353 1 -1.7041571875 0.7192153125 -3.2847437680
354 1 -1.6334087500 -1.4957012500 -6.4029017614
355 1 -2.1863484375 -1.3852315625 -4.0281756160
356 1 -1.6932459375 -2.1119584375 -5.7096185032
357 1 -1.0772843750 -1.6229946875 -4.0181896240
358 1 -0.5120090625 -1.6411218750 -3.1801563680
359 1 -1.1139821875 -2.1658159375 -4.9120200960
360 1 -0.0168506250 -1.8101387500 -4.0855141200
361 1 1.1297712500 -1.9198693750 -4.0379284720
362 1 -2.2217293750 -0.8730209375 -4.9200891920
363 1 -2.2136265625 -0.3332096875 -4.0365167040
364 1 -1.6082940625 -0.9111028125 -5.6450385360
365 1 -1.0563890625 -1.0989053125 -4.8819196480
366 1 -0.5734856250 -0.5653693750 -3.2680227360
367 1 -0.4505728125 -1.0841778125 -5.6419727976
368 1 0.0756396875 -1.2023740625 -4.7917089680
369 1 0.5926206250 -1.3402159375 -5.6915685960
370 1 0.0238918750 -0.6181115625 -4.0320871200
371 1 1.1459231250 -1.3508853125 -4.8152038960
372 1 1.1890306250 -0.7875450000 -3.9893066640
373 1 1.6681715625 -1.4894393750 -5.6860316160
374 1 -1.5869284375 0.1992243750 -5.6540790320
375 1 -1.1318675000 -0.5280265625 -4.0914331840
376 1 -0.4782406250 0.5441381250 -6.4643920420
377 1 -1.0602859375 0.0850325000 -4.7763608480
378 1 -0.5504940625 -0.0345746875 -5.6796398040
379 1 0.0109918750 -0.0534946875 -4.8313679920
380 1 0.5940450000 0.3815981250 -6.4365204907
381 1 0.0870481250 0.4977518750 -3.9974664240
382 1 0.5540550000 -0.1933656250 -5.6700980656
383 1 1.1234959375 -0.2787475000 -4.8985241120
384 1 1.7210078125 -0.3768950000 -5.6567277160
385 1 1.1646953125 0.2737487500 -4.0709172160
386 1 -2.2331915625 1.3867500000 -4.7841450000
387 1 -2.2045025000 1.9561775000 -4.0068436720
388 1 -1.7209271875 1.2636221875 -5.6789352152
389 1 -1.0923478125 0.6828131250 -4.0289397840
390 1 -0.5495534375 1.6537262500 -6.4492997110
391 1 -1.1553293750 1.2330384375 -4.8394888960
392 1 -0.5921771875 1.1013106250 -5.6482299088
393 1 -0.0227900000 1.0205109375 -4.8818289840
394 1 0.0378803125 1.5794706250 -4.0903452160
395 1 0.5757296875 0.9566156250 -5.6345655488
396 1 1.1527762500 0.8451515625 -4.8726201120
397 1 1.7196506250 0.7407421875 -5.6698558632
398 1 1.1471862500 1.9753796875 -4.8597587760
399 1 -1.6416996875 -1.5352075000 -3.2144921200
400 1 -0.5068221875 -1.0887868750 -2.3760573520
401 1 0.5419881250 -1.8617656250 -3.2558478560
402 1 1.6971428125 -1.4998668750 -2.4810592160
403 1 -1.6764221875 -0.9420225000 -2.4778471200
404 1 -0.4849190625 -0.0128596875 -2.4266349120
405 1 -0.5252987500 0.5237265625 -3.2796536320
406 1 0.5769256250 -0.7795765625 -3.2599018320
407 1 1.7585118750 -0.8947628125 -3.2372746880
408 1 -1.6462550000 1.2729746875 -2.4448454240
409 1 -1.6348465625 -0.3409631250 -3.2073944240
410 1 -0.4750828125 1.6913512500 -3.1981985040
411 1 -1.6017500000 0.1977731250 -2.3831550480
412 1 -0.6002262500 1.0927778125 -2.4822248960
413 1 0.6584912500 0.3987309375 -3.2019286800
414 1 1.7321743750 0.2443743750 -3.1877980480
415 1 1.6720281250 -0.3548037500 -2.4241481280
416 1 -1.6392943750 1.8242884375 -3.2574798080
417 1 0.5792637500 1.5251696875 -3.2057883760
418 1 1.1259953125 1.4053743750 -4.0731061040
419 1 1.7243134375 0.7967362500 -2.3726121200
420 1 2.2374781250 0.1648512500 -4.0827553440
421 1 1.6605256250 1.3348006250 -3.2308375440
422 1 2.2392787500 1.2579918750 -4.0213758160
423 1 0.0239187500 2.1713790625 -4.8513658800
424 1 0.5675865625 2.0489096875 -5.6767774120
425 1 1.7048962500 1.9225703125 -5.6609552488
426 1 1.7034450000 1.3348812500 -6.4133026060
427 1 0.6258381250 2.0819256250 -2.3800983760
428 1 -1.6365128125 -2.1162046875 -2.4473969680
429 1 0.6474053125 -1.3252868750 -2.4072198640
430 1 0.5528053125 -0.2066284375 -2.4857219360
431 1 0.5205687500 0.9617218750 -2.4032824560
432 1 -1.0349159375 1.7806434375 -4.0128274960
433 1 1.7273906250 1.9015540625 -2.4425399680
434 1 0.6222503125 -0.7565312500 -6.4684013465
435 1 2.2216621875 -1.5651865625 -4.8599271520
436 1 -0.5492981250 2.2195121875 -5.6353737536
437 1 -1.7039153125 -0.3643981250 -6.4668038210
438 1 -1.6170150000 1.8335603125 -6.4464510482
439 1 1.6956781250 0.1816078125 -6.4633485771
440 1 -0.5797340625 -1.6399528125 -6.4574361574
441 1 2.3237468750 -2.0905659375 -3.9880373680
442 1 2.2662746875 1.8026137500 -4.8743945360
443 1 6.6910015625 1.2589325000 -4.8659627840
444 1 2.2707225000 -0.4302687500 -4.8261742400
445 1 2.8434153125 -2.0869646875 -6.4230289104
446 1 2.8882025000 -2.1109237500 -3.1977192800
447 1 3.3719928125 -0.3977634375 -4.8307851520
448 1 4.4728331250 -1.8925778125 -4.0971061600
449 1 5.0677246875 -1.8626525000 -6.4725697923
450 1 5.5876215625 -1.7722853125 -4.0422414880
451 1 2.8710293750 -0.9487950000 -3.2575834240
452 1 2.7873540625 -1.4920731250 -5.6647786792
453 1 3.9611734375 -0.8776837500 -6.4191715458
454 1 4.0007200000 -0.8784496875 -3.2249702880
455 1 3.3613637500 -1.4960506250 -4.9123050400
456 1 3.9736031250 -1.4499062500 -5.6436267680
457 1 4.5488221875 -1.3240237500 -4.8878516640
458 1 5.1374787500 -1.2811715625 -5.6506273240
459 1 5.7091234375 -1.2140109375 -4.8484905360
460 1 6.1204587500 -0.5341675000 -3.2495531840
461 1 6.2382115625 -1.1211981250 -5.6903977352
462 1 2.3116128125 -1.0066568750 -4.0586516720
463 1 2.8034521875 -0.3809800000 -5.6701123128
464 1 3.4526446875 -0.9762612500 -4.0423321520
465 1 3.3712268750 0.1778990625 -4.0461918480
466 1 3.8969287500 -0.2868771875 -5.6900687544
467 1 4.4537787500 -0.2086440625 -4.8989515280
468 1 4.5728887500 0.3202156250 -4.0019089600
469 1 6.2211056250 -0.0083850000 -5.6283913304
470 1 5.6177618750 -0.0272512500 -4.8801063680
471 1 5.6136903125 -0.6131128125 -4.1197721600
472 1 6.1757137500 0.5424584375 -6.4581228725
473 1 2.2961596875 0.7257459375 -4.8851965040
474 1 2.8802475000 0.6927434375 -5.6503553320
475 1 3.4279465625 0.7578212500 -4.8123674080
476 1 3.3255528125 1.3387646875 -4.0513078880
477 1 3.9655943750 0.8238934375 -5.6663730704
478 1 4.5168409375 0.8725909375 -4.7998557760
479 1 5.0215803125 1.0083768750 -5.7125637880
480 1 4.4750234375 1.4592721875 -4.0326181520
481 1 5.0649700000 -0.1751040625 -5.6451434472
482 1 5.5618887500 1.0738846875 -4.8786686960
483 1 6.2384803125 1.6967934375 -6.4239007095
484 1 6.3283637500 1.7163181250 -3.2495661360
485 1 6.1497525000 1.1058256250 -5.6634213096
486 1 3.4078575000 -2.0481303125 -4.0784552800
487 1 5.0064631250 -1.7974134375 -3.2477528560
488 1 6.1574253125 -1.6473434375 -3.2779828240
489 1 6.1614700000 -2.2068406250 -2.4692210880
490 1 2.8505909375 -0.4177987500 -2.3967546480
491 1 2.7623737500 -1.5238125000 -2.4646101760
492 1 3.9607434375 -1.9951193750 -3.1914375600
493 1 3.9039565625 -1.4165678125 -2.3934777920
494 1 4.5452746875 -0.7569478125 -4.0852032720
495 1 5.1298193750 -1.2755950000 -2.3716018640
496 1 5.0853546875 -0.7312418750 -3.2089227600
497 1 6.2576153125 -1.0833715625 -2.4558805280
498 1 2.8103590625 1.2432240625 -3.2023042880
499 1 2.7840753125 0.1181693750 -3.2565213600
500 1 3.9343253125 0.2589406250 -3.3016720320
501 1 3.9211028125 -0.2886375000 -2.4742335120
502 1 5.1326546875 0.3983009375 -3.2391786320
503 1 5.0046490625 -0.1509165625 -2.4243812640
504 1 5.7067046875 0.5336971875 -4.0461659440
505 1 6.2313987500 0.5560303125 -3.1864251360
506 1 3.9206862500 1.3648871875 -3.2469627840
507 1 3.9938534375 0.7908640625 -2.4458038720
508 1 5.6936165625 1.6026906250 -3.9728058160
509 1 5.1383118750 2.0853387500 -2.4204438560
510 1 6.0958143750 1.1450093750 -2.4305205120
511 1 2.8507925000 1.8389621875 -5.6557148696
512 1 3.4108406250 1.8860471875 -4.8689676480
513 1 3.9888546875 1.8809006250 -5.6597934544
514 1 4.5393621875 2.0227468750 -4.8249697040
515 1 5.0738387500 2.1111790625 -5.6794649520
516 1 5.6304065625 2.1419643750 -4.7988325680
517 1 3.9720981250 1.9133790625 -2.4261815920
518 1 5.0836078125 1.5579437500 -3.3001048400
519 1 6.2020512500 0.0130209375 -2.3769251360
520 1 2.8824915625 0.6753956250 -2.4288108480
521 1 5.0323303125 0.9891478125 -2.4869912320
522 1 2.8097812500 1.8404940625 -2.4573052480
523 1 2.7816028125 1.2665650000 -6.4423547191
524 1 3.9371740625 -2.0110293750 -6.4543486597
525 1 5.0928796875 0.3975484375 -6.4203969345
526 1 5.0435237500 -0.7399896875 -6.4618362109
527 1 -3.3707162500 6.5679006250 -3.9982564960
528 1 -3.9425221875 3.2501684375 -3.2643832240
529 1 -6.1849950313 2.3330993750 -2.5825122320
530 1 -6.1332015313 2.9459568750 -3.2233253840
531 1 -6.1888825000 2.4429375000 -5.6271906800
532 1 -5.6024364063 2.5367715625 -4.8872040640
533 1 -5.0463725000 3.1683340625 -6.4610594794
534 1 -5.5657802500 3.1152290625 -4.0506991440
535 1 -5.0168906250 2.6363568750 -5.6339309008
536 1 -4.4511181250 2.6238196875 -4.8415353120
537 1 -4.5114256250 3.2068996875 -4.0891795360
538 1 -3.9079206250 2.6869625000 -5.6737971568
539 1 -3.3562440625 2.6580853125 -4.7922918080
540 1 -2.7775581250 3.1419293750 -6.4514863972
541 1 -2.8547565625 2.5630418750 -5.6824633400
542 1 -6.1877241875 3.6080225000 -5.7180968824
543 1 -6.1390844688 2.9952456250 -6.4347679556
544 1 -5.6308298438 3.6507671875 -4.8817253680
545 1 -5.0083443750 4.3294550000 -6.4620402049
546 1 -5.6191902813 4.1807421875 -4.0072840400
547 1 -5.0673350000 3.7556603125 -5.6785285224
548 1 -4.5124603125 3.7982303125 -4.8530884960
549 1 -3.8993878125 4.3578350000 -6.4468508764
550 1 -3.8664121875 4.3630353125 -3.2247371520
551 1 -3.9531781250 3.7750775000 -5.6538005640
552 1 -3.3801493750 3.7617878125 -4.8735526560
553 1 -3.3276490625 4.3414546875 -4.0736630400
554 1 -2.8023906250 3.7075003125 -5.6463026512
555 1 -6.1545846250 5.7834328125 -5.6043446472
556 1 -6.7105004500 5.1971143750 -4.0627704080
557 1 -6.1233330313 4.7015796875 -5.6592844408
558 1 -5.6427045625 5.3625703125 -4.0800613280
559 1 -5.5791196563 4.7610943750 -4.7978352640
560 1 -4.4295375000 4.3265928125 -4.0182284800
561 1 -3.9393778125 6.0235743750 -5.6888978936
562 1 -4.5232506250 4.8899868750 -4.8539821840
563 1 -5.0697134375 4.9102103125 -5.6911204568
564 1 -3.4004400000 4.9005218750 -4.8753270800
565 1 -2.8006571875 5.3506781250 -6.4563742230
566 1 -3.3507615625 5.4511771875 -4.0641692240
567 1 -2.8105875000 4.7929681250 -5.6405208784
568 1 -6.1322031250 6.3554000000 -6.4285452967
569 1 -5.5936079688 5.9714368750 -4.8514435920
570 1 -5.6184875000 6.5273596875 -4.0798022880
571 1 -5.0083443750 5.9808968750 -5.6177344248
572 1 -4.4551628125 6.0369446875 -4.7938330960
573 1 -4.5267981250 6.6386490625 -4.0772636960
574 1 -3.3698562500 6.0265843750 -4.8532957280
575 1 -2.7842634375 6.5359328125 -3.2427015760
576 1 -2.8275456250 5.9326831250 -5.6879653496
577 1 -6.1469225625 3.5621737500 -2.4981817600
578 1 -5.0051193750 3.1517656250 -3.1978488000
579 1 -5.0257056250 2.5776215625 -2.3893590560
580 1 -3.8538212500 2.7104378125 -2.4121157200
581 1 -3.3625731250 3.2357231250 -4.0223601680
582 1 -2.7729625000 3.1419159375 -3.2751204320
583 1 -6.2211660938 4.1249228125 -3.2817648080
584 1 -5.0370200000 4.3203175000 -3.2913881440
585 1 -5.0500812500 3.7487937500 -2.4858903120
586 1 -3.9191275000 3.7978675000 -2.4245496400
587 1 -2.8368578125 3.6824528125 -2.4381362880
588 1 -2.7765234375 4.2755975000 -3.1982373600
589 1 -6.1668812813 5.2196356250 -3.1958541920
590 1 -6.1197909063 4.6498318750 -2.3886596480
591 1 -4.4865662500 5.4396478125 -4.0363612800
592 1 -5.0793346875 5.4577481250 -3.2841997840
593 1 -3.9120862500 5.4935456250 -3.2413286640
594 1 -4.0141709375 4.9377303125 -2.4451433200
595 1 -2.8274650000 5.3575850000 -3.2080808800
596 1 -2.8123343750 4.8186875000 -2.3612143600
597 1 -6.1375848438 6.3640268750 -3.2127047440
598 1 -5.0626587500 6.5246453125 -3.2333372800
599 1 -5.0333515625 5.9590071875 -2.4042020480
600 1 -3.9685371875 6.5742296875 -3.2596686960
601 1 -3.9191678125 6.0550450000 -2.4001610240
602 1 -2.8171987500 5.9543443750 -2.4695578400
603 1 -2.2397087500 3.5936175000 -4.8640588400
604 1 -2.2654415625 4.1820725000 -4.0985308800
605 1 -2.2611146875 5.3227281250 -4.0356489200
606 1 -2.7884693750 2.5784009375 -2.4719798640
607 1 -5.0513846875 4.8574412500 -2.4796733520
608 1 -6.1802825000 5.8125250000 -2.4119732480
609 1 -3.9522240625 4.9272759375 -5.6636764640
610 1 -2.8159221875 6.5163946875 -6.4385547318
611 1 -2.2961596875 2.4960156250 -4.8493712720
612 1 -2.2542481250 5.8500962500 -4.9066450160
613 1 -6.6867425469 2.8985090625 -4.0297816640
614 1 -6.6857820344 4.6055687500 -4.8485034880
615 1 -6.6777407656 6.2656778125 -4.0353898800
616 1 -6.6900747781 3.4358881250 -4.8126912080
617 1 -0.6351100000 6.6881662500 -5.6883254152
618 1 -2.2380962500 6.3765909375 -4.0357136800
619 1 -1.6515090625 6.3437631250 -3.2237398480
620 1 -0.0585203125 6.6508368750 -4.8831112320
621 1 1.0983543750 6.4411984375 -4.8666492400
622 1 0.5342615625 6.5551081250 -5.6374875200
623 1 1.6991315625 6.3995690625 -5.6161244912
624 1 -0.5256481250 6.6927753125 -2.4165971120
625 1 0.5094156250 6.5221190625 -2.4297433920
626 1 1.6700259375 6.3861046875 -2.4133332080
627 1 -2.1894928125 3.0525968750 -4.0325145360
628 1 -1.7195968750 2.4032834375 -5.6441021064
629 1 -1.1479925000 2.3095568750 -4.8825413440
630 1 -1.1188196875 2.8734346875 -4.0886614560
631 1 -0.0344134375 2.7370306250 -4.0493780400
632 1 1.1428862500 3.0653490625 -4.8535159120
633 1 -1.6870243750 4.0545640625 -6.4721909852
634 1 -1.6695556250 3.5031293750 -5.6464166288