ITEM: TIMESTEP
167000
ITEM: NUMBER OF ATOMS
2304
ITEM: BOX BOUNDS pp pp pp
-6.7187500000 6.7187500000
-6.7187500000 6.7187500000
-6.4760000000 6.4760000000
ITEM: ATOMS id type x y z
1 1 -6.0912698125 -6.5421906563 -6.4671642363
2 1 -5.5351024375 -6.6040352719 -4.0311286720
3 1 -4.4950587500 -5.8680742813 -4.8250603680
4 1 -4.4090050000 -6.4504985313 -4.0702955200
5 1 -3.9379937500 -6.3271463125 -6.4406357297
6 1 -3.3843150000 -6.2124370938 -4.0434071680
7 1 -6.7096752397 -5.4599236563 -4.0122317040
8 1 -6.1223507500 -5.9931760625 -5.6638914672
9 1 -5.6023732500 -6.0331297813 -4.7981720160
10 1 -5.5460580313 -4.8422971875 -4.8130279600
11 1 -5.0505918750 -5.9206390938 -5.6454180296
12 1 -4.4366459375 -5.3068584375 -4.0189537920
13 1 -3.8516981250 -5.1645553125 -3.2583864480
14 1 -3.3798000000 -5.6807300000 -4.9242597360
15 1 -2.7747362500 -5.6075359375 -5.6687769616
16 1 -4.4502446875 -4.7293415625 -4.8030419680
17 1 -5.0463859375 -4.3243084375 -6.4736022221
18 1 -5.6078503750 -4.2833240625 -4.0407520080
19 1 -3.9384237500 -4.6302668750 -5.7138823016
20 1 -3.9615093750 -5.7395540000 -5.6766854528
21 1 -4.5032825000 -4.1610696875 -4.0101464320
22 1 -3.3945140625 -4.6110243750 -4.8327927120
23 1 -3.2619128125 -5.1640446875 -4.0341464880
24 1 -2.8633834375 -4.4408787500 -5.7038134168
25 1 -3.9073831250 -4.0635671875 -3.2839666480
26 1 -2.7351359375 -5.0310537500 -6.4529078792
27 1 -6.6857563688 -3.7541015625 -4.7955945680
28 1 -6.1611139063 -3.8282093750 -5.6851975072
29 1 -5.5919780000 -3.7157375000 -4.8749255680
30 1 -6.1078812500 -4.8888984375 -5.6104722384
31 1 -4.9858903125 -3.1915003125 -6.4344340530
32 1 -5.5719010313 -3.1793125000 -4.0284864640
33 1 -5.0231659375 -3.7584956250 -5.6513772448
34 1 -4.4480006250 -3.6277756250 -4.8753788880
35 1 -4.4831128125 -3.0589259375 -4.0990230560
36 1 -3.8503946875 -3.5334846875 -5.6232286632
37 1 -3.3012040625 -3.4634081250 -4.8052956160
38 1 -3.3990021875 -2.8675893750 -4.0656198480
39 1 -2.7621453125 -3.3304575000 -5.6975148592
40 1 -6.7091974694 -6.5270264375 -4.0119597120
41 1 -6.1269275625 -6.5725379063 -3.2601220160
42 1 -4.9841165625 -6.4617806563 -3.2415488480
43 1 -3.9127446875 -6.3102983750 -3.1508200880
44 1 -2.7388043750 -5.0071350000 -3.1747942400
45 1 -2.8325578125 -6.1926194688 -3.1909842400
46 1 -6.1228707813 -5.4212115625 -3.2236232800
47 1 -6.1475863750 -6.0125260625 -2.4564763200
48 1 -5.6089979375 -5.4384465000 -4.0711244480
49 1 -5.0587887500 -5.9262613438 -2.3890741120
50 1 -5.0208412500 -5.3942465313 -3.2777496880
51 1 -2.8614215625 -4.4300346875 -2.4203790960
52 1 -6.1799452188 -4.3440884375 -3.2235714720
53 1 -6.1320821875 -4.8915321875 -2.3672240880
54 1 -5.0744703125 -4.2837675000 -3.2077441280
55 1 -5.0080353125 -4.8436812500 -2.4425270160
56 1 -3.9458546875 -4.6185090625 -2.4338362240
57 1 -3.3198821875 -4.0374446875 -4.0384983600
58 1 -6.1405142188 -3.2703381250 -3.2153210480
59 1 -6.1127227813 -3.7915115625 -2.3596212640
60 1 -5.0237437500 -3.1302387500 -3.2198542480
61 1 -4.9875028125 -3.6871693750 -2.4352738960
62 1 -3.9424684375 -2.9595421875 -3.2390879680
63 1 -3.8970765625 -3.5252878125 -2.4383046640
64 1 -2.8275053125 -2.7841156250 -3.2699007760
65 1 -2.7490168750 -3.8778475000 -3.2730999200
66 1 -2.7704228125 -5.6037465625 -2.4287719920
67 1 -2.2413346875 -2.7408603125 -4.0207023120
68 1 -6.1778798750 -2.6842884375 -5.6776995944
69 1 -5.6215821563 -2.6335618750 -4.8985629680
70 1 -5.0122009375 -2.6062703125 -5.6678236944
71 1 -4.4816615625 -2.4633625000 -4.8550572000
72 1 -3.8853187500 -2.4550178125 -5.6217158696
73 1 -3.2919187500 -2.3136150000 -4.8762207680
74 1 -2.7129371875 -2.2411734375 -5.6313081208
75 1 -6.1721514688 -2.6798003125 -2.4746868320
76 1 -5.0131415625 -2.5891509375 -2.3633384880
77 1 -3.8517787500 -2.4137512500 -2.3861728640
78 1 -3.9434359375 -5.7011187188 -2.4253915200
79 1 -2.8228693750 -3.3539596875 -2.4338750800
80 1 -5.0090431250 -4.8875143750 -5.6669248256
81 1 -6.0933956250 -3.2439200000 -6.4615332636
82 1 -2.2900993750 -4.4181290625 -4.9240266000
83 1 -2.2423559375 -3.3209706250 -4.8167581360
84 1 -2.3013734375 -6.0490868125 -4.0516964480
85 1 -6.7081982569 -6.0061069688 -4.8934598800
86 1 -6.7120606781 -4.9259859375 -4.8669471360
87 1 -6.6831883281 -3.1659421875 -4.0345739040
88 1 -2.8511150000 -6.1790005625 -6.4511562507
89 1 -2.2121350000 -4.9586928125 -4.0875216800
90 1 -1.6870915625 -4.8856600000 -3.1711547280
91 1 -1.1410453125 -6.4459163438 -4.7905303360
92 1 -1.6697571875 -6.6490589594 -5.7018848640
93 1 -2.2011834375 -5.5244236563 -4.9210087840
94 1 -1.0710628125 -5.2985943750 -4.8176777280
95 1 -1.1309403125 -5.8912902500 -4.0308696320
96 1 -0.0163265625 -6.2723293750 -4.8937448240
97 1 -0.0164206250 -5.1946553125 -4.8292050080
98 1 0.0565584375 -5.7706456875 -4.0181248640
99 1 1.1180268750 -6.2942150313 -4.8963222720
100 1 0.5621040625 -6.2853355313 -5.6736831792
101 1 1.1476834375 -5.7370935938 -4.0528750800
102 1 1.7124346875 -6.3301885625 -5.6812665752
103 1 -1.5934590625 -5.5235287188 -5.6479708688
104 1 -0.4788721875 -4.1247481250 -5.6361573496
105 1 -1.1699493750 -4.7397421875 -4.0520979600
106 1 -0.5298809375 -5.2270396875 -5.7066240008
107 1 -0.0020425000 -4.6380471875 -4.0290174960
108 1 0.5556809375 -5.1092600000 -5.6616792656
109 1 1.1024931250 -5.1735450000 -4.8624916480
110 1 1.7541715625 -4.6783059375 -6.4464891270
111 1 1.1590381250 -4.6305759375 -4.0510488480
112 1 -2.1588687500 -3.8911909375 -4.0263234800
113 1 -1.6849415625 -4.3425968750 -5.6429079320
114 1 -1.1019690625 -4.1930509375 -4.9178225920
115 1 -1.0873625000 -3.6589909375 -4.0677957840
116 1 0.0480390625 -4.0548059375 -4.7808422400
117 1 1.1196259375 -3.4916671875 -3.9890994320
118 1 -0.0329353125 -3.4465037500 -4.0792194480
119 1 0.5552509375 -4.0361143750 -5.6879005896
120 1 1.1491078125 -2.9615309375 -4.8461332720
121 1 1.1268284375 -4.0354156250 -4.8277932400
122 1 -1.7215184375 -3.1528943750 -5.7247891808
123 1 -1.1895815625 -3.0936887500 -4.8786686960
124 1 -0.4798934375 -2.4708606250 -6.4252345065
125 1 -1.0352115625 -2.5666296875 -4.0120115200
126 1 -0.5967862500 -3.0265012500 -5.6321590672
127 1 0.5593359375 -2.3674053125 -6.4347055270
128 1 -0.0065440625 -2.9002425000 -4.9036531040
129 1 0.5897853125 -2.9401787500 -5.6361431024
130 1 1.7185353125 -2.4180512500 -3.2396708080
131 1 1.7321878125 -2.9352875000 -5.6411943824
132 1 -1.7292315625 -5.9847400000 -3.2870492240
133 1 -0.5545521875 -5.7865731563 -3.2977993840
134 1 -0.5663100000 -6.3163492813 -2.4369188000
135 1 0.6038006250 -5.7035119375 -3.1993253280
136 1 0.5475378125 -6.3010359063 -2.4647785520
137 1 1.7024775000 -5.7907441563 -3.2064877840
138 1 1.6474375000 -6.3902622500 -2.4468659360
139 1 -1.6013737500 -5.4810393438 -2.4026866640
140 1 -0.5850553125 -4.6792465625 -3.2693567920
141 1 -0.5428212500 -5.2444143750 -2.4345744880
142 1 0.5764956250 -4.5737756250 -3.2584253040
143 1 0.5241162500 -5.1241621875 -2.4447029520
144 1 1.6849818750 -4.6766934375 -3.2167457680
145 1 1.7172453125 -5.2270128125 -2.4085539200
146 1 -1.6337715625 -3.7142996875 -3.1830835200
147 1 -1.6794456250 -4.3062081250 -2.4225420800
148 1 -0.5638643750 -3.5940206250 -3.1749108080
149 1 -0.4962468750 -4.1696831250 -2.3950838400
150 1 0.5129900000 -3.4962628125 -3.2556794800
151 1 0.6165259375 -4.0287103125 -2.3981275600
152 1 1.7135903125 -3.5019871875 -3.2613006480
153 1 1.6965918750 -4.0702590625 -2.4843749280
154 1 -1.7465793750 -3.1435687500 -2.4261815920
155 1 0.0777628125 -2.3636159375 -4.0434201200
156 1 -0.5754878125 -3.0039665625 -2.4136311040
157 1 0.6254618750 -2.3530003125 -3.1792367760
158 1 0.5848134375 -2.9542075000 -2.4349112400
159 1 2.2389159375 -6.4723532813 -4.8512234080
160 1 1.6794053125 -5.2362712500 -5.6530389864
161 1 2.2321971875 -4.2107481250 -4.8922942000
162 1 -1.6478406250 -2.6017821875 -3.2918544160
163 1 -0.4897431250 -2.4425209375 -3.2126399840
164 1 1.6709665625 -2.9688006250 -2.4110925120
165 1 -0.5896240625 -6.3596059375 -5.6443119288
166 1 -1.6642343750 -6.5297220000 -2.4167395840
167 1 1.6565750000 -4.0941643750 -5.6690554296
168 1 2.2261906250 -5.8812605000 -4.0903452160
169 1 1.1168981250 -2.3905984375 -4.0672388480
170 1 -2.2103746875 -6.6325672500 -4.7906987120
171 1 0.5775437500 -5.7032270625 -6.4312872351
172 1 -1.6900478125 -4.9112315625 -6.4204567727
173 1 -1.6286115625 -3.7690440625 -6.4155338470
174 1 -0.5729615625 -3.5735150000 -6.4666466225
175 1 1.6828453125 -3.5186765625 -6.4259710867
176 1 6.7165193750 -4.3577946875 -4.0854364080
177 1 6.6990103125 -2.6090653125 -4.8513011200
178 1 2.2567071875 -5.3045337500 -4.8578418800
179 1 2.2547050000 -4.7506400000 -4.0261292000
180 1 2.2563578125 -2.4369712500 -4.1081671680
181 1 6.1601665625 -5.9788678125 -5.7124821904
182 1 6.1847168750 -4.7587696875 -5.6740160456
183 1 2.7959675000 -6.5184156875 -5.6786554520
184 1 3.3568353125 -6.6303299063 -4.8413021760
185 1 3.3625731250 -6.0819186563 -4.0255852160
186 1 3.8978828125 -6.6893392094 -5.6743631592
187 1 4.5001381250 -6.2566733438 -4.0566441120
188 1 5.6112850000 -6.3767051563 -4.0835065600
189 1 3.3885478125 -4.3999346875 -4.8062670160
190 1 2.8036940625 -5.4009935000 -5.6759782736
191 1 3.3691037500 -4.9930390625 -4.0605426640
192 1 3.9698271875 -5.5509895938 -5.6292500480
193 1 4.5058087500 -5.6776581875 -4.8138698400
194 1 5.0156409375 -4.6761425000 -5.6999057984
195 1 4.4914440625 -5.0755184375 -4.0983754560
196 1 5.0642578125 -5.7758177813 -5.6489876008
197 1 5.6412909375 -5.7905063125 -4.8444754160
198 1 5.6165121875 -5.2489965625 -4.0065975840
199 1 2.8547162500 -3.7259365625 -3.2389195920
200 1 3.3861693750 -3.8011731250 -4.1107964240
201 1 3.3609740625 -5.5424231875 -4.8831889440
202 1 3.3611890625 -3.1675009375 -4.8062799680
203 1 3.9402378125 -4.5020328125 -5.6531970008
204 1 4.5160884375 -4.4758565625 -4.8261094800
205 1 4.5057684375 -3.9277140625 -4.0071674720
206 1 5.0685578125 -4.0616859375 -6.3937305798
207 1 5.6014084375 -4.7259015625 -4.9022024800
208 1 4.9950278125 -2.9253975000 -6.4682705702
209 1 5.6158000000 -4.2008715625 -3.9952904880
210 1 6.1968509375 -5.3652309375 -6.3905534542
211 1 2.2725365625 -3.6729659375 -4.0475000000
212 1 2.2485640625 -3.0803318750 -4.7792620960
213 1 3.8719484375 -3.4096715625 -5.6693857056
214 1 3.9375100000 -2.7966125000 -6.3807474950
215 1 4.4944540625 -2.9096218750 -4.0169980400
216 1 4.5345650000 -2.3576228125 -4.8538267600
217 1 5.1092196875 -2.3479343750 -5.6712067568
218 1 5.6199790625 -3.6696737500 -4.8522854720
219 1 6.2271121875 -3.6455131250 -5.6344632280
220 1 5.5991778125 -3.0930168750 -4.0771082720
221 1 6.1466081250 -4.1961415625 -6.4665177501
222 1 2.7608015625 -5.9658576250 -3.2635413440
223 1 2.8379059375 -6.4870969063 -2.3936461680
224 1 3.9349971875 -6.1401258750 -3.2650308240
225 1 5.0729653125 -6.3162968750 -3.2436859280
226 1 6.1521443750 -6.5165881875 -3.2220172320
227 1 2.8443693750 -5.3966505000 -2.4515286560
228 1 3.9602865625 -5.0182478125 -3.2526357600
229 1 3.8833434375 -5.5798950000 -2.4501816480
230 1 5.0166487500 -5.2449518750 -3.2362385280
231 1 5.0171056250 -5.7720566250 -2.3853439360
232 1 6.1655281250 -5.3722184375 -3.2098034960
233 1 6.1844615625 -5.9445578438 -2.4458945360
234 1 2.7651821875 -4.2718887500 -2.4284870480
235 1 2.8286878125 -4.8348662500 -3.2484781680
236 1 3.8925481250 -3.9711440625 -3.2404608800
237 1 3.9318125000 -4.4816212500 -2.3651647200
238 1 5.0444106250 -4.1057071875 -3.1953620160
239 1 5.0924228125 -4.6845006250 -2.4297952000
240 1 6.2070500000 -4.2076575000 -3.2015530720
241 1 6.1753643750 -4.8027909375 -2.4475394400
242 1 3.4122918750 -2.6468918750 -3.9959121840
243 1 2.7842768750 -2.6926062500 -3.2448904640
244 1 6.1619134375 -3.1455575000 -3.2618187280
245 1 3.9872690625 -3.3899184375 -2.4465550880
246 1 3.9257387500 -2.8102650000 -3.1899092240
247 1 5.0630350000 -3.5056690625 -2.4779766400
248 1 5.0718634375 -2.9036556250 -3.2238952720
249 1 6.1649906250 -3.6648631250 -2.3680271120
250 1 4.4758834375 -3.4094431250 -4.9358776800
251 1 5.6246956250 -2.4844056250 -4.7770214000
252 1 6.1415287500 -2.6008953125 -5.6872270856
253 1 2.8234471875 -3.1799575000 -2.3631960160
254 1 5.0530509375 -2.3727400000 -2.3804480800
255 1 6.1725425000 -2.5824590625 -2.4269975680
256 1 2.8195503125 -4.8069968750 -6.4246615100
257 1 2.8503221875 -4.2451615625 -5.6178548784
258 1 2.7913853125 -3.1971575000 -5.6537189664
259 1 5.0988862500 -3.4674125000 -5.6571732648
260 1 3.9792468750 -6.6862893000 -2.4266737680
261 1 3.9482600000 -6.1080720625 -6.4385605602
262 1 -6.6523882344 -2.0769537500 -3.9953422960
263 1 -5.0029962500 -2.0430240625 -6.4532640592
264 1 -5.5515687500 -2.0924068750 -4.0471373440
265 1 -4.4541684375 -1.8912878125 -4.0777299680
266 1 -3.3616325000 -1.7457462500 -4.0895680960
267 1 -6.1555413750 -1.5223075000 -5.6639601128
268 1 -5.6068801875 -1.5348043750 -4.8573756080
269 1 -5.5613875313 -0.9880190625 -4.0220752240
270 1 -5.0457006250 -1.4622687500 -5.6771672672
271 1 -4.4851687500 -1.3302990625 -4.8837329280
272 1 -3.8686159375 -0.7563296875 -6.4400425281
273 1 -4.4263662500 -0.7890231250 -4.0125684560
274 1 -3.9103259375 -1.3545940625 -5.6731353096
275 1 -3.3637690625 -1.1571434375 -4.8523113760
276 1 -3.3211318750 -0.5845446875 -4.0652701440
277 1 -2.7808637500 -1.1455468750 -5.6188185072
278 1 -6.6495757656 -0.3886259375 -4.8150873280
279 1 -6.1763627813 0.1580384375 -6.4539279787
280 1 -6.1165309688 -0.4392987500 -5.6875767896
281 1 -5.5673282500 -0.4266540625 -4.8203199360
282 1 -5.6181865000 0.1537250000 -4.0237460320
283 1 -5.0584931250 -0.3218415625 -5.7166760480
284 1 -4.5035646875 -0.2591018750 -4.8769201760
285 1 -4.4378150000 0.2753209375 -4.0115063920
286 1 -3.9415278125 -0.1825887500 -5.6778459520
287 1 -3.3864784375 -0.0400437500 -4.8848338480
288 1 -2.7443675000 0.5465434375 -6.4539993442
289 1 -3.3036093750 0.5026565625 -4.0088123760
290 1 -2.7891546875 -0.0287831250 -5.6489668776
291 1 -6.1485807500 1.2547668750 -6.4437769782
292 1 -6.6748091063 1.2730418750 -4.0005749040
293 1 -6.1114166563 0.7006715625 -5.6316681864
294 1 -5.5285019375 0.6784862500 -4.8706255040
295 1 -5.6049895313 1.2579515625 -4.0883506080
296 1 -4.9708537500 0.8114234375 -5.6859590848
297 1 -4.4379762500 0.8449500000 -4.8178461040
298 1 -4.5186818750 1.4174143750 -4.0536910560
299 1 -3.9211162500 0.9726868750 -5.7250702392
300 1 -3.3815200000 1.0386918750 -4.8630485840
301 1 -2.8303137500 1.1161859375 -5.6865380392
302 1 -6.0926283438 -2.0810253125 -3.2010738480
303 1 -4.9807840625 -2.0520675000 -3.2167846240
304 1 -3.9115218750 -1.8752837500 -3.2286616080
305 1 -2.8265378125 -1.6734525000 -3.2273146000
306 1 -2.7193334375 -2.2341456250 -2.4451821760
307 1 -6.1555897500 -0.9448040625 -3.2712607360
308 1 -6.1725048750 -1.4995443750 -2.4416592320
309 1 -5.0006850000 -0.9073134375 -3.2266151920
310 1 -5.0530778125 -1.4704925000 -2.4473969680
311 1 -3.8438640625 -0.7868865625 -3.2129896880
312 1 -3.9009331250 -1.3333225000 -2.3784923280
313 1 -2.7675606250 -0.5895703125 -3.2359276800
314 1 -2.7301775000 -1.1312493750 -2.3745937760
315 1 -6.1917151250 0.1103890625 -3.2231699600
316 1 -6.0929333750 -0.4252431250 -2.3795673440
317 1 -5.0461978125 0.2692606250 -3.2811560640
318 1 -5.0205053125 -0.3023571875 -2.4942961600
319 1 -3.8759259375 0.4054765625 -3.2287263680
320 1 -3.9450753125 -0.1923578125 -2.4868876160
321 1 -6.1194012188 1.2694943750 -3.1949475520
322 1 -6.1323549688 0.6866159375 -2.4467752720
323 1 -5.0532525000 1.3635434375 -3.2107748960
324 1 -4.9912921875 0.7864700000 -2.4005107280
325 1 -2.7799903125 1.6961618750 -3.2378704800
326 1 -3.8876837500 0.9862453125 -2.4659183280
327 1 -2.7178821875 0.5007484375 -3.2124068480
328 1 -2.8110712500 1.1072634375 -2.4961742000
329 1 -2.2489403125 0.1361084375 -4.8479206480
330 1 -2.2760975000 1.2631115625 -4.8754825040
331 1 -6.1689090000 1.8588496875 -5.6502387640
332 1 -5.5979415625 1.8266803125 -4.8779692880
333 1 -5.0052268750 1.9115918750 -5.6132556232
334 1 -4.4058875000 1.9745868750 -4.8762466720
335 1 -3.8544931250 2.1044468750 -5.6873203400
336 1 -3.3113090625 2.1259200000 -4.8246588560
337 1 -3.3544300000 1.5736118750 -3.9900967360
338 1 -6.1878128750 1.8590243750 -2.4265442480
339 1 -5.0310000000 1.9153946875 -2.3868463680
340 1 -3.9642506250 1.5555653125 -3.2584382560
341 1 -3.8506096875 2.0858762500 -2.3921437360
342 1 -2.8209746875 -0.0527556250 -2.3911464320
343 1 -2.2828296875 -1.6008362500 -4.0620969040
344 1 -6.6932942688 0.7506859375 -4.8931749360
345 1 -6.1117512500 -2.1054278125 -6.4518333813
346 1 -3.8604728125 -1.9080443750 -6.4709199018
347 1 -2.7937906250 -1.6874006250 -6.4644817346
348 1 -2.7668484375 -0.5863856250 -6.4481491849
349 1 -2.1509271875 -2.1723331250 -4.8243091520
350 1 -2.1888343750 -1.0359775000 -4.8701074240
351 1 -2.2258412500 -0.4651525000 -4.0980257520
352 1 -2.2169725000 0.7126846875 -4.0659825040
353 1 -2.1975150000 1.8082978125 -4.0063126400
354 1 1.7892971875 -1.3753146875 -3.3237033840
355 1 -1.6398990625 0.7100778125 -3.2530761280
356 1 -1.6325353125 -2.0519465625 -5.7228412000
357 1 -1.1238184375 -1.4243212500 -4.0118949520
358 1 -0.5839803125 -1.8609190625 -5.7253240984
359 1 -0.5154087500 -1.3013009375 -3.3031485600
360 1 -1.1044550000 -1.9965034375 -4.8069664240
361 1 -0.0476359375 -1.8117646875 -4.8896908480
362 1 0.1005662500 -1.2968396875 -4.0154178960
363 1 0.5770465625 -1.7871203125 -5.6209814912
364 1 1.1266268750 -1.8116034375 -4.8600048640
365 1 1.7096396875 -1.3548896875 -6.4435944846
366 1 1.2644553125 -1.2585562500 -4.0691039360
367 1 1.7238834375 -1.9158246875 -5.6249396224
368 1 -1.6168806250 -0.9456506250 -5.6256714104
369 1 -1.0354534375 -0.8807878125 -4.8602250480
370 1 -0.5934940625 -0.1919412500 -3.2403572640
371 1 -0.4803368750 -0.7324646875 -5.6875677232
372 1 0.0321021875 -0.7025393750 -4.7896755040
373 1 0.5506687500 -0.6806362500 -5.7198920296
374 1 -0.0323843750 -0.1201984375 -4.0292635840
375 1 1.0707806250 -0.6718481250 -4.8506017120
376 1 1.1672753125 -0.1141650000 -4.0108846960
377 1 1.6536725000 -0.7760290625 -5.6535946272
378 1 -1.6634415625 0.1658859375 -5.6375626416
379 1 -1.1557862500 -0.3165606250 -4.0730283920
380 1 -0.5231084375 0.9297137500 -6.4403344662
381 1 -1.0972928125 0.2659146875 -4.8607819840
382 1 -0.5311171875 0.3530165625 -5.6506338000
383 1 0.0426506250 0.4132703125 -4.8759228720
384 1 0.5284565625 1.0245556250 -6.4535229697
385 1 -0.0016796875 0.9733184375 -4.0486915840
386 1 0.6116481250 0.4533006250 -5.6717986632
387 1 1.1556518750 0.3849709375 -4.8729439120
388 1 1.7594928125 0.3705256250 -5.6340112032
389 1 1.0563890625 0.9719075000 -4.0466063120
390 1 -1.6419146875 1.8614700000 -6.4638908255
391 1 -1.6909884375 1.2770462500 -5.6534612216
392 1 -1.0989993750 0.8341596875 -4.0970025440
393 1 -1.1481940625 1.4258531250 -4.8386081600
394 1 -0.5844371875 1.4954325000 -5.6439635200
395 1 0.0062618750 1.5125384375 -4.9085619120
396 1 0.0056571875 2.0642553125 -4.0930003760
397 1 0.6089740625 1.5929484375 -5.6334529720
398 1 1.1757678125 1.5229256250 -4.8393464240
399 1 1.7017115625 1.4480250000 -5.6955344984
400 1 -1.7102040625 -1.4883240625 -3.2579460800
401 1 -0.4951315625 -0.7639353125 -2.4726274640
402 1 0.6771156250 -1.2178406250 -3.2562234640
403 1 0.5401471875 -1.7597615625 -2.4583414080
404 1 1.6646106250 -0.8071771875 -2.4576031440
405 1 -1.6000568750 -0.9244865625 -2.4477596240
406 1 -0.5141321875 0.3747718750 -2.4275156480
407 1 -0.5698037500 0.9336375000 -3.2330523360
408 1 0.5753668750 -0.1386750000 -3.2961026720
409 1 1.7233459375 -0.1849268750 -3.1881218480
410 1 -1.7113596875 1.2557746875 -2.4075177600
411 1 -1.6988090625 -0.3589290625 -3.2226259760
412 1 -0.5098859375 2.0208790625 -3.2398909920
413 1 -1.6546534375 0.1816346875 -2.3574712320
414 1 -0.5809300000 1.4718900000 -2.3715759600
415 1 0.5470271875 1.0323628125 -3.1840808240
416 1 1.6650943750 0.9490771875 -3.2494884240
417 1 1.6814343750 0.3666153125 -2.4392242560
418 1 -1.6063321875 1.8066718750 -3.2383885600
419 1 0.5519050000 2.1719031250 -3.2334149920
420 1 1.1005984375 2.0932803125 -4.0507509520
421 1 1.7312606250 1.4701162500 -2.4046424160
422 1 2.2374243750 -0.5309425000 -4.0272560240
423 1 2.1972596875 0.7470712500 -4.0636770480
424 1 1.6771478125 2.0093496875 -3.2803530400
425 1 1.7053262500 2.0252059375 -6.4720389028
426 1 -1.6284906250 -2.0559106250 -2.4567483120
427 1 -0.5751250000 -1.8561621875 -2.4685346320
428 1 1.6922784375 -1.8753643750 -2.3674313200
429 1 0.5725046875 -0.6564621875 -2.4193558880
430 1 0.5733781250 0.4244368750 -2.4732491600
431 1 0.5894762500 1.6145021875 -2.4310256400
432 1 -1.0858843750 2.0115265625 -4.0713834880
433 1 2.2380962500 1.3864812500 -4.7912038400
434 1 -1.6837456250 -0.3966750000 -6.4500844727
435 1 1.6912840625 -0.2080393750 -6.4189597806
436 1 -1.6431912500 0.7392237500 -6.4643137342
437 1 -0.5576159375 2.0567034375 -6.4538870504
438 1 6.7094781250 -0.9870381250 -4.0780796720
439 1 6.7085375000 0.2038334375 -4.0636252400
440 1 2.2850334375 1.9497275000 -4.0148091520
441 1 3.3948768750 -2.1360921875 -4.9474826720
442 1 6.7018993750 -1.5443181250 -4.8612612080
443 1 2.2851275000 0.1904496875 -4.7785756400
444 1 2.8035193750 -1.5157903125 -6.3772100447
445 1 2.7474984375 -2.1143771875 -5.6332820056
446 1 3.2326593750 -1.5921153125 -4.0333046080
447 1 3.4357403125 -1.0681871875 -4.8798084720
448 1 3.9862612500 -2.1934165625 -5.6685865672
449 1 4.3985371875 -1.7908425000 -4.0750230000
450 1 6.2337906250 -2.0191053125 -6.4561906931
451 1 5.6072671875 -1.8899843750 -4.0188631280
452 1 2.2737593750 -1.7993081250 -4.6803217680
453 1 2.8029550000 -0.3298234375 -3.2054775280
454 1 2.2492090625 -0.8855043750 -4.8824377280
455 1 2.8548506250 -0.9144890625 -5.6568999776
456 1 3.3150446875 -0.5163628125 -4.0750618560
457 1 3.9813700000 -1.0810603125 -5.7067535208
458 1 4.4871978125 -1.1795840625 -4.7674887280
459 1 4.5019521875 -0.5903900000 -4.0142781200
460 1 4.9964387500 -1.2964231250 -5.6776581480
461 1 5.5592550000 -1.3594853125 -4.8514694960
462 1 6.1431681250 -0.8930696875 -6.4475489892
463 1 5.6313471875 -0.7954731250 -4.0307012560
464 1 6.1422140625 -1.4562621875 -5.6498644512
465 1 2.8161640625 0.1677000000 -5.6700151728
466 1 3.3752446875 0.0901521875 -4.7968250080
467 1 3.4157721875 0.6510334375 -4.0141874560
468 1 3.8717334375 0.0038431250 -5.6942820400
469 1 4.4484306250 -0.0653062500 -4.8839142560
470 1 4.5340275000 0.4753515625 -4.0447282720
471 1 6.2305253125 -0.3490390625 -5.6171179096
472 1 5.6122121875 -0.2682528125 -4.8947291760
473 1 5.6167675000 0.2944156250 -4.0953317360
474 1 2.7512743750 1.2722356250 -5.6735666112
475 1 3.3124915625 1.1876331250 -4.8928511360
476 1 3.3779859375 1.7231443750 -4.0752949920
477 1 3.9309390625 1.1378068750 -5.6145806128
478 1 4.5058087500 1.0358834375 -4.8617792880
479 1 5.0851531250 0.9488756250 -5.6494383304
480 1 4.4644884375 1.6177271875 -4.1026884720
481 1 5.0309059375 -0.1585087500 -5.6264886816
482 1 5.6329731250 0.9120971875 -4.8096474880
483 1 6.2064453125 1.3209062500 -6.4363549642
484 1 6.1521175000 1.3193878125 -3.2366400400
485 1 6.1465543750 0.7483343750 -5.6702055672
486 1 2.7433059375 -1.5028634375 -3.2646811200
487 1 3.8925615625 -1.5970065625 -3.2485299760
488 1 3.9184690625 -2.1857840625 -2.4958763040
489 1 4.9909562500 -1.8429800000 -3.2866736160
490 1 6.1668584375 -2.0400409375 -3.2595650800
491 1 2.8576321875 0.1941584375 -2.3773266480
492 1 2.8165000000 -0.9392140625 -2.4453894080
493 1 3.8881406250 -0.5418671875 -3.2817130000
494 1 3.9514850000 -1.0727290625 -2.4015598400
495 1 5.0638815625 -0.7536690625 -3.2300215680
496 1 5.0838900000 -1.3203687500 -2.4350537120
497 1 6.2013525000 -0.8585353125 -3.2057236160
498 1 6.1724350000 -1.4695787500 -2.4765001120
499 1 2.8563690625 1.8398356250 -3.2305785040
500 1 2.7791437500 0.7039637500 -3.3128755120
501 1 3.9670053125 0.5764015625 -3.2302028960
502 1 3.9593862500 -0.0006315625 -2.4442625840
503 1 5.0978381250 0.4272721875 -3.2148288720
504 1 5.0172265625 -0.1658053125 -2.4757618480
505 1 6.1594409375 0.2094503125 -3.2202816640
506 1 6.1550065625 -0.3198259375 -2.3629240240
507 1 3.9586740625 1.7291509375 -3.2224964560
508 1 3.8664793750 1.1383846875 -2.4609965680
509 1 5.6141606250 1.4797240625 -4.0217773280
510 1 5.0803425000 2.0366143750 -2.4375016400
511 1 6.1915700000 0.7842796875 -2.4096548400
512 1 6.6950059375 1.8227700000 -4.8581656800
513 1 4.5271609375 2.2236509375 -4.8168876560
514 1 5.0224000000 2.0321665625 -5.7159015184
515 1 5.5951868750 2.0140125000 -4.8796789520
516 1 6.1517278125 1.9173834375 -5.6949477728
517 1 5.0069334375 1.4855559375 -3.2592283280
518 1 6.1625584375 1.9176253125 -2.4899183840
519 1 2.8462775000 -2.0878381250 -2.4710732240
520 1 2.7903237500 1.2502250000 -2.4715783520
521 1 5.0362271875 0.9697306250 -2.3660325040
522 1 5.1122431250 -0.7214996875 -6.4549155687
523 1 3.9587815625 2.2040725000 -5.6441280104
524 1 3.9942296875 0.5910753125 -6.4470507258
525 1 5.0364690625 0.3704450000 -6.4661133498
526 1 2.8240518750 1.8800943750 -6.4370160342
527 1 -2.7105184375 6.6874137500 -5.7110574704
528 1 -2.7254206250 6.6812593750 -2.4027773280
529 1 -2.8055887500 2.2645009375 -5.7328077640
530 1 -2.2625659375 2.3410140625 -4.8638386560
531 1 -5.6231812188 6.2967184375 -4.8601473360
532 1 -5.0920196875 6.4108162500 -5.6822910784
533 1 -4.4799012500 6.4638540625 -4.9627401280
534 1 -3.8467934375 6.5420065625 -5.6377232464
535 1 -3.3861156250 6.1243287500 -4.0878454800
536 1 -3.2777959375 6.6848203125 -4.8890562000
537 1 -5.0746853125 6.4073359375 -2.4351055200
538 1 -3.8959746875 6.5261100000 -2.4336419440
539 1 -6.1914705625 6.3022950000 -5.7226676432
540 1 -3.9381818750 2.6441371875 -3.1948180320
541 1 -6.1241782500 2.3920496875 -3.2792391680
542 1 -4.9927434375 2.4621128125 -6.4487221814
543 1 -5.5504924063 2.3729550000 -4.0648556800
544 1 -3.9665081250 2.6939096875 -6.4675694007
545 1 -4.4781678125 2.5452775000 -4.0818487040
546 1 -6.1764783438 2.9273996875 -5.7002658640
547 1 -5.6257840625 2.9670940625 -4.8170948880
548 1 -5.6135451875 3.5391015625 -4.0267508960
549 1 -5.1031056250 3.0283959375 -5.6615911920
550 1 -4.5091143750 3.1020871875 -4.9038862400
551 1 -4.4332193750 3.6289446875 -4.0382781760
552 1 -3.9082565625 3.2239653125 -5.6023422680
553 1 -3.3017550000 3.2546968750 -4.8931101760
554 1 -2.8350303125 4.0033403125 -6.4566473806
555 1 -3.3474425000 3.8143150000 -4.0816285200
556 1 -2.7329053125 3.4052640625 -5.6651193168
557 1 -6.1544395000 5.1844025000 -5.6417642704
558 1 -6.6936130063 4.6455856250 -4.0509711360
559 1 -6.1146886875 4.0403875000 -5.6432679976
560 1 -5.6325350625 4.6664943750 -4.0575507520
561 1 -5.5488973750 4.0895418750 -4.8488013840
562 1 -4.4864318750 4.2277062500 -4.7841709040
563 1 -3.8193406250 5.4139687500 -5.6893162432
564 1 -4.4960934375 4.8321384375 -4.0518389200
565 1 -5.0049581250 4.1470946875 -5.7047433704
566 1 -3.4056940625 4.3891846875 -4.8653281360
567 1 -3.2990271875 4.9464512500 -4.0507250480
568 1 -2.8326921875 4.4976790625 -5.6035092432
569 1 -6.1359172500 5.7111659375 -6.4726490586
570 1 -5.5625969063 5.2095440625 -4.9092483680
571 1 -5.5498514375 5.7285003125 -4.0450650240
572 1 -4.9793193750 5.2545865625 -5.6639186664
573 1 -4.4019503125 5.3737637500 -4.8842251040
574 1 -4.9929987500 5.8228853125 -6.4290947206
575 1 -4.4821856250 5.9436212500 -4.0841412080
576 1 -3.9650300000 5.9831543750 -6.4552064706
577 1 -3.2934103125 5.5407112500 -4.7955686640
578 1 -2.8276665625 6.1723006250 -3.2944318640
579 1 -2.7562462500 5.6070253125 -5.6557433640
580 1 -6.1404873438 2.9245375000 -2.3885819360
581 1 -5.0219834375 2.4708740625 -3.2074462320
582 1 -3.4074812500 2.7042431250 -4.0636900000
583 1 -2.8586265625 2.8412787500 -3.2464188000
584 1 -6.1882710938 3.4540690625 -3.2631268800
585 1 -5.0256518750 3.5945312500 -3.2918155600
586 1 -5.0660046875 3.0485656250 -2.4416074240
587 1 -3.8857756250 3.7948709375 -3.2230533920
588 1 -3.9560268750 3.2268543750 -2.4228529280
589 1 -2.8112728125 3.9327262500 -3.1915152720
590 1 -2.7708662500 3.3723825000 -2.3813029120
591 1 -6.1527463750 4.6013359375 -3.1918390720
592 1 -6.1291178750 4.0000615625 -2.4581341760
593 1 -5.0427846875 4.6782387500 -3.2459525280
594 1 -5.0140956250 4.1202331250 -2.4229435920
595 1 -3.9014840625 4.8797340625 -3.3149996400
596 1 -3.9471984375 4.3593668750 -2.4207935600
597 1 -2.7603446875 5.0608850000 -3.2374171600
598 1 -2.8398946875 4.5123931250 -2.4143564160
599 1 -6.1673636875 6.3085300000 -2.4391465440
600 1 -6.1202760000 5.7472725000 -3.2462374720
601 1 -4.9988978125 5.8290262500 -3.1901423600
602 1 -5.0068662500 5.2376418750 -2.4484719840
603 1 -3.9199740625 5.9571796875 -3.2345547680
604 1 -3.8761543750 5.4054896875 -2.4114681200
605 1 -2.7970828125 5.6281221875 -2.4417369440
606 1 -2.2561696875 2.8779765625 -4.0001474880
607 1 -2.2874387500 4.0149503125 -4.0642728400
608 1 -2.7468803125 2.2743640625 -2.4624212880
609 1 -6.1707418750 5.1878693750 -2.4419312240
610 1 -3.9749871875 4.3330562500 -5.6885158096
611 1 -6.1833677500 4.6120993750 -6.4476867985
612 1 -6.6827544313 6.3419356250 -4.8218871280
613 1 -6.7173983353 2.3650671875 -4.0560742240
614 1 -6.7022042719 4.1015012500 -4.8932915040
615 1 -6.6885247625 5.7638946875 -4.0533284000
616 1 -6.7001264313 2.9543821875 -4.8153463680
617 1 1.1297443750 6.6315406250 -4.0101982400
618 1 -2.2106703125 5.1540471875 -4.0794007760
619 1 -1.6396303125 6.3916006250 -3.2788765120
620 1 -2.2167440625 6.2086087500 -4.0153919920
621 1 1.1177715625 2.6591065625 -4.8488661440
622 1 -1.6614796875 2.9846434375 -6.4735419694
623 1 -1.7086721875 2.4259659375 -5.6757606800
624 1 -1.1508412500 2.5666296875 -4.8761560080
625 1 -0.5347856250 4.2896128125 -6.4535324246
626 1 -1.1168175000 3.1073278125 -4.0339392560
627 1 -0.5630850000 2.6187000000 -5.6299999688
628 1 0.0147543750 2.6670078125 -4.8352924480
629 1 -0.0079281250 3.2363143750 -4.0722512720
630 1 0.5405637500 2.6853231250 -5.6854397096
631 1 1.6494128125 2.5996456250 -5.6882049616
632 1 1.1100046875 3.7413090625 -4.8847043280
633 1 -2.1841446875 3.4299756250 -4.8314845600
634 1 -1.7213303125 4.1552243750 -6.4712589334