ITEM: TIMESTEP
172000
ITEM: NUMBER OF ATOMS
2304
ITEM: BOX BOUNDS pp pp pp
-6.7187500000 6.7187500000
-6.7187500000 6.7187500000
-6.4760000000 6.4760000000
ITEM: ATOMS id type x y z
1 1 -6.7060858281 -5.8567384063 -4.8700167600
2 1 -5.5929508750 -6.3172925938 -4.0563591680
3 1 -4.4581056250 -5.6059435938 -4.8582045360
4 1 -3.8582556250 -6.6213400844 -5.6814958256
5 1 -4.4630371875 -6.1626511563 -4.0088512320
6 1 -3.9207937500 -6.0251089375 -6.4170233270
7 1 -3.3621700000 -5.8908642813 -4.0166353840
8 1 -3.3310621875 -6.4526633125 -4.8323005360
9 1 -6.6746035125 -5.3228759375 -3.9953163920
10 1 -6.1229850000 -5.8260915000 -5.6569025680
11 1 -5.5755936563 -5.7397931875 -4.8134553760
12 1 -5.6157771563 -4.5843778125 -4.8784744160
13 1 -5.0509950000 -5.5878432813 -5.6590137440
14 1 -4.4570306250 -5.0386190625 -4.0771859840
15 1 -3.9388268750 -4.8597390625 -3.2280010560
16 1 -3.3362625000 -5.3679990625 -4.9143773600
17 1 -2.7405109375 -5.3448731250 -5.6567316016
18 1 -6.7080570422 -4.2276928125 -4.0577838880
19 1 -4.4812987500 -4.4452056250 -4.8131963360
20 1 -5.5860964063 -4.0485171875 -4.0099132960
21 1 -3.9501278125 -4.3064096875 -5.6615121848
22 1 -3.9300521875 -5.4370718438 -5.6766401208
23 1 -4.4676731250 -3.8699731250 -4.0496370800
24 1 -3.3659593750 -4.3027412500 -4.8591629840
25 1 -3.3321909375 -4.8506687500 -4.0153531360
26 1 -2.8329340625 -4.1647515625 -5.6809868120
27 1 -3.9199068750 -3.7867278125 -3.2345806720
28 1 -2.7941400000 -4.7577618750 -6.4227996600
29 1 -6.6803925219 -3.6615843750 -4.8458094720
30 1 -6.1413984063 -3.5587471875 -5.6549908528
31 1 -5.5559426563 -3.4979559375 -4.8503167680
32 1 -6.1740112188 -4.7044553125 -5.6837455880
33 1 -5.5998940313 -2.9419390625 -4.0379025680
34 1 -5.0051462500 -3.3985318750 -5.6733580840
35 1 -4.4693393750 -3.2960575000 -4.8340490560
36 1 -3.9496440625 -2.6827296875 -6.4617325949
37 1 -4.4271053125 -2.7586650000 -3.9770540720
38 1 -3.9022096875 -3.2513509375 -5.6697898080
39 1 -3.3735918750 -3.1463234375 -4.8111887760
40 1 -3.2869468750 -2.5758746875 -3.9414231200
41 1 -2.8297493750 -3.0262056250 -5.6544520496
42 1 -6.1659043750 -6.3722613750 -3.2532704080
43 1 -5.0513040625 -6.1309090938 -3.2431419440
44 1 -5.0212040625 -6.7040198125 -2.4616441680
45 1 -3.9028950000 -6.0354289375 -3.1964370320
46 1 -3.8814487500 -6.6182389781 -2.4686512000
47 1 -2.7977009375 -4.7038371875 -3.1872281600
48 1 -2.7624275000 -5.9013267188 -3.2202169040
49 1 -6.0987276250 -5.2607140625 -3.2046874560
50 1 -6.1489838750 -5.8287104688 -2.4029586560
51 1 -5.5823083750 -5.1390240625 -4.0808643520
52 1 -5.0114753125 -5.6109396563 -2.3532618320
53 1 -5.0191481250 -5.0644996875 -3.2389843520
54 1 -2.7902700000 -4.1124125000 -2.4780932080
55 1 -2.2419259375 -4.5910696875 -4.0192387360
56 1 -6.1782426875 -4.1131918750 -3.2347360960
57 1 -6.1752152188 -4.6903593750 -2.4511660000
58 1 -5.0204784375 -3.9860328125 -3.2152044800
59 1 -5.0675768750 -4.5285450000 -2.3766920000
60 1 -3.9070203125 -4.3051734375 -2.3834011360
61 1 -3.3521187500 -3.7536984375 -4.0731449600
62 1 -6.1858483125 -3.0116259375 -3.2600831600
63 1 -6.0941387188 -3.5537484375 -2.4189025680
64 1 -5.0179925000 -2.8331490625 -3.2622590960
65 1 -5.0441956250 -3.3933987500 -2.4556344400
66 1 -3.8117753125 -2.6823803125 -3.2118499120
67 1 -3.9769490625 -3.2376043750 -2.3537928640
68 1 -2.3550025000 -2.4478825000 -3.9352838720
69 1 -2.8185021875 -3.4821265625 -3.2253718000
70 1 -2.7960346875 -5.3205781250 -2.4569037360
71 1 -2.2430681250 -4.0661606250 -4.9235991840
72 1 -6.1259815625 -2.4828334375 -5.6225642256
73 1 -5.5692941563 -2.3687759375 -4.8127948240
74 1 -5.0142300000 -2.2759228125 -5.6304791928
75 1 -6.1387512188 -2.4790843750 -2.4068572080
76 1 -2.7745750000 -6.4424736563 -5.6798988440
77 1 -2.7742256250 -6.4803956250 -2.3944491920
78 1 -2.2506468750 -5.7058823125 -4.0715130080
79 1 -3.9176090625 -5.4304767188 -2.4708400880
80 1 -2.8162178125 -2.9631703125 -2.5183739280
81 1 -5.0240393750 -4.5264621875 -5.6523965672
82 1 -3.8760737500 -4.8730421875 -6.4652886442
83 1 -2.7617153125 -3.5855012500 -6.4459108202
84 1 -2.2453793750 -6.3191738438 -4.7977057440
85 1 -2.2469381250 -3.5676696875 -4.0376694320
86 1 -2.2506468750 -2.9703728125 -4.8453043440
87 1 -6.7183118864 -2.4954512500 -4.8551090080
88 1 -5.0110184375 -2.3012256250 -2.4080746960
89 1 -4.4399381250 -6.6689381281 -4.8996509360
90 1 -6.1479505313 -4.1274087500 -6.4591348122
91 1 -5.0651043750 -3.9639550000 -6.4746079449
92 1 -5.0620406250 -2.8348959375 -6.4644955803
93 1 -5.0038159375 -6.1600563750 -6.4610539101
94 1 -1.6751053125 -4.6317315625 -3.2132098720
95 1 -1.1101793750 -6.2497503438 -4.8602639040
96 1 -1.6997228125 -6.2849364375 -5.6294417376
97 1 -2.1989796875 -5.1371965625 -4.8463405040
98 1 -1.0984618750 -5.1546787500 -4.8591629840
99 1 -1.1127862500 -5.7074491250 -4.0386537840
100 1 0.0170118750 -6.3711568125 -4.8810518640
101 1 0.0131418750 -5.3092906250 -4.8865305600
102 1 0.0262971875 -5.8471238750 -4.0148739120
103 1 1.1356165625 -6.6054198719 -4.9012958400
104 1 0.5939375000 -6.4596333438 -5.6910919624
105 1 1.0958415625 -6.0528452813 -4.0787790800
106 1 1.7641690625 -6.6152748000 -5.6178846680
107 1 -1.6425059375 -5.2055531250 -5.6951873848
108 1 -0.4959646875 -4.0451040625 -5.6514005584
109 1 -1.1238050000 -4.5986484375 -4.0352474080
110 1 -0.5308753125 -5.1462400000 -5.6917473336
111 1 -0.0227228125 -4.7625590625 -4.0633273440
112 1 0.6283509375 -5.3193687500 -5.6253217064
113 1 1.1811159375 -5.4626541563 -4.8328186160
114 1 1.0999534375 -4.9167409375 -4.0285382720
115 1 -1.6345509375 -4.0494578125 -5.6478543008
116 1 -1.0798778125 -4.0536906250 -4.8683330000
117 1 -1.1846365625 -3.5104662500 -4.0517741600
118 1 0.0369665625 -4.1554259375 -4.7926156080
119 1 1.1868806250 -3.7431096875 -4.0072063280
120 1 -0.0380953125 -3.5805965625 -4.0178658240
121 1 0.5546059375 -4.2591768750 -5.6975757336
122 1 1.7484740625 -3.8370378125 -6.4386811434
123 1 1.0384096875 -3.2273515625 -4.8979412720
124 1 1.0930734375 -4.3087209375 -4.7868001600
125 1 -1.7058100000 -2.8970309375 -5.6511855552
126 1 -1.1538512500 -2.8989525000 -4.7941957520
127 1 -1.1381562500 -2.3624200000 -3.9888922000
128 1 -0.6230565625 -2.9780859375 -5.6511518800
129 1 0.5752996875 -2.5397681250 -6.4189933262
130 1 -0.0554431250 -3.0108465625 -4.8135201360
131 1 0.4817746875 -3.1337593750 -5.6800244784
132 1 1.1011493750 -2.6639306250 -4.0990101040
133 1 1.6033490625 -2.7740375000 -6.4755968522
134 1 1.6264884375 -2.7289412500 -3.1715432880
135 1 1.6664918750 -3.2984493750 -5.5973725856
136 1 -1.6870243750 -5.7438405625 -3.2538014400
137 1 -0.5533025000 -5.7699885938 -3.2445019040
138 1 -0.5306065625 -6.2948869063 -2.4056008640
139 1 0.5856465625 -5.9118348438 -3.1867100800
140 1 0.5861034375 -6.5046543438 -2.4408432560
141 1 1.6560240625 -6.0509747813 -3.2070447200
142 1 1.7187637500 -6.6433497688 -2.4296268240
143 1 -1.6285578125 -5.2089931250 -2.4114163120
144 1 -0.5619293750 -4.6215056250 -3.2189346560
145 1 -0.5294912500 -5.2097321875 -2.4369058480
146 1 0.5387496875 -4.7746662500 -3.2397485200
147 1 0.5946093750 -5.3279015625 -2.4268421440
148 1 1.6955975000 -4.9718884375 -3.3042106240
149 1 1.7518200000 -5.4961834063 -2.4098750240
150 1 -1.6884218750 -3.4508709375 -3.1821250720
151 1 -1.6641268750 -4.0460581250 -2.4508162960
152 1 -0.6069718750 -3.5093778125 -3.2406292560
153 1 -0.5139575000 -4.0689556250 -2.4172058560
154 1 0.5672640625 -3.6926250000 -3.3038220640
155 1 0.5972162500 -4.2108825000 -2.4218167680
156 1 1.7455850000 -3.8564953125 -3.2152692400
157 1 1.6285040625 -4.4424106250 -2.4487310240
158 1 -1.6821734375 -2.8767940625 -2.3911464320
159 1 0.0437928125 -2.4526125000 -4.0328642400
160 1 -0.5708921875 -2.9494909375 -2.4176073680
161 1 0.5721956250 -2.5636331250 -3.1865028480
162 1 0.4995256250 -3.1574228125 -2.4443402960
163 1 1.7239909375 -5.5531261563 -5.6735445928
164 1 2.1494893750 -4.5001650000 -4.8766481840
165 1 -1.7806568750 -2.3648387500 -3.2716492960
166 1 -0.5644959375 -2.4024771875 -3.2606141920
167 1 1.6461071875 -3.3100996875 -2.4038264400
168 1 2.1527143750 -2.7928500000 -4.0671740880
169 1 -0.5547000000 -6.3349293125 -5.6713453432
170 1 -1.6878709375 -6.3042313438 -2.4001480720
171 1 1.6060365625 -4.4129287500 -5.7004692104
172 1 2.1860125000 -6.1832871250 -4.0516187360
173 1 -0.5354843750 -5.7453119688 -6.4182092122
174 1 0.5643615625 -5.8611123125 -6.4447213086
175 1 -1.7100696875 -4.6054478125 -6.4500426378
176 1 -1.6752128125 -3.4783775000 -6.4335552598
177 1 -0.5038525000 -2.4048153125 -6.4457849268
178 1 2.2780996875 -5.5900900313 -4.8022648480
179 1 2.2721468750 -3.3437337500 -4.8707032160
180 1 6.1888018750 -5.9932271250 -5.7060528176
181 1 6.1419587500 -4.8079509375 -5.6886220160
182 1 6.7042509375 -4.8049812500 -4.8584117680
183 1 6.6988087500 -3.0899128125 -4.0874310160
184 1 6.7046540625 -6.4189015938 -4.0652830960
185 1 3.3993918750 -6.3260430938 -3.9835818800
186 1 4.5711687500 -6.5188188125 -4.0429927040
187 1 5.6230293750 -6.5962081969 -4.0528491760
188 1 3.3611756250 -4.6571015625 -4.8959596160
189 1 2.7844381250 -5.7079503438 -5.7173391904
190 1 3.4235928125 -5.2223634375 -4.0734428560
191 1 3.9059050000 -5.8637836875 -5.6323844320
192 1 4.4728600000 -5.9758887188 -4.8599271520
193 1 5.0773728125 -4.9192000000 -5.6790893440
194 1 4.4601615625 -5.3894668125 -4.0936609280
195 1 5.0588425000 -5.9993008750 -5.6168005856
196 1 5.6512750000 -6.0108638438 -4.8679573920
197 1 5.5820181250 -5.4900478438 -4.0146278240
198 1 2.8026459375 -3.9870406250 -3.1776695840
199 1 3.3201240625 -4.1016759375 -4.0962124720
200 1 3.3169796875 -5.8036455000 -4.8577512160
201 1 3.4192525000 -3.4776250000 -4.8224440640
202 1 3.9595340625 -4.7784421875 -5.6113089376
203 1 4.5415928125 -4.8007081250 -4.8424937600
204 1 4.4573800000 -4.2512353125 -4.0034632000
205 1 5.0054015625 -4.3508206250 -6.4589749846
206 1 5.6197371875 -4.9249646875 -4.8105152720
207 1 5.0827612500 -3.1884096875 -6.4521064094
208 1 5.6221425000 -4.3151575000 -4.0583278720
209 1 2.2824265625 -3.9325784375 -4.0939847280
210 1 2.7939653125 -4.0134050000 -6.4462868168
211 1 3.9262628125 -3.6572843750 -5.7111908760
212 1 3.3470393750 -2.3536990625 -4.8244257200
213 1 4.5298484375 -3.1479896875 -4.0298593760
214 1 4.4641256250 -2.6208634375 -4.8470658160
215 1 5.0057912500 -2.6299606250 -5.6479682784
216 1 5.5696153125 -3.7722421875 -4.8683330000
217 1 6.1664015625 -3.7489415625 -5.6222378352
218 1 5.6208793750 -3.2108637500 -4.0439252480
219 1 2.7737553125 -6.2631824688 -3.3032392240
220 1 3.9806040625 -6.4324721250 -3.2627124160
221 1 5.0859325000 -6.5710020000 -3.1693155440
222 1 6.1695190625 -6.5598865000 -3.2039103360
223 1 2.3114381250 -5.0297906250 -3.9995128400
224 1 2.7966931250 -5.7358775000 -2.4515416080
225 1 3.9442421875 -5.2969281250 -3.1654169920
226 1 3.8865684375 -5.8955176875 -2.4234487200
227 1 5.0002012500 -5.4540837188 -3.2404867840
228 1 5.0800200000 -5.9761762813 -2.4034508320
229 1 6.1658640625 -5.4076800000 -3.2686832880
230 1 6.1878343750 -5.9676837813 -2.4441071600
231 1 2.7585575000 -4.5902768750 -2.4250288640
232 1 2.8751815625 -5.1443587500 -3.2274959280
233 1 3.8586587500 -4.1941259375 -3.2616244480
234 1 3.9750140625 -4.7042403125 -2.3950579360
235 1 5.0500946875 -4.3718637500 -3.2683724400
236 1 5.0901115625 -4.8831606250 -2.4078027040
237 1 6.1523190625 -4.2953371875 -3.2304878400
238 1 6.1708225000 -4.8826634375 -2.4273990800
239 1 3.3391650000 -2.9459300000 -4.0079057360
240 1 2.7301775000 -2.8903659375 -3.3033039840
241 1 6.1748000000 -3.2114550000 -3.1971105360
242 1 3.9372950000 -3.6104681250 -2.4588594880
243 1 3.9222584375 -3.0694071875 -3.2915306160
244 1 4.9984543750 -3.7987543750 -2.4474746800
245 1 5.0648893750 -3.2279428125 -3.1965665520
246 1 6.1706075000 -3.7685334375 -2.3835565600
247 1 2.8184887500 -2.3374262500 -5.7397578072
248 1 4.4680090625 -3.7175918750 -4.8493453680
249 1 3.9039834375 -2.5334928125 -5.6916553744
250 1 5.6125346875 -2.6656775000 -4.8912191840
251 1 6.1759018750 -2.6294768750 -5.6838155288
252 1 2.8505640625 -3.4116065625 -2.4019354480
253 1 3.8888259375 -2.5442159375 -2.4219592400
254 1 5.0600384375 -2.6302562500 -2.4333958560
255 1 6.1723678125 -2.6051953125 -2.4646231280
256 1 2.7907537500 -2.3669215625 -2.4411282000
257 1 6.1777293750 -6.5855826281 -6.4677666597
258 1 3.9302134375 -5.3191403125 -6.4677432425
259 1 2.8654259375 -5.1017081250 -6.4255590836
260 1 2.7603446875 -4.5443609375 -5.5953935200
261 1 2.8466268750 -3.4341412500 -5.6274859856
262 1 3.8752003125 -4.2383756250 -6.4627664235
263 1 5.0272509375 -3.7725109375 -5.6917382672
264 1 3.9909912500 -6.4238385313 -6.4466809462
265 1 5.0920600000 -6.5527713438 -6.4592710673
266 1 6.1680543750 -5.4076961250 -6.4353497594
267 1 6.1897559375 -3.1973187500 -6.4559541896
268 1 -6.1308593750 -1.9412618750 -6.4706834630
269 1 -5.5696166563 -1.7656606250 -4.0795821040
270 1 -4.4254121875 -2.2311490625 -4.8271844960
271 1 -3.9443228125 -1.5342668750 -6.4448666300
272 1 -4.4684928125 -1.6432987500 -4.0758648800
273 1 -3.9102318750 -2.0955781250 -5.6849747328
274 1 -3.3466496875 -2.0655721875 -4.8745111040
275 1 -3.3692381250 -1.5009956250 -4.0418399760
276 1 -6.2026787813 -1.3745621875 -5.7009380728
277 1 -5.6878680000 -1.2045643750 -4.8586578560
278 1 -4.9859575000 -0.6686903125 -6.4635105030
279 1 -5.5800293750 -0.6731515625 -3.9902392080
280 1 -5.0852606250 -1.2118878125 -5.6083209112
281 1 -4.5099878125 -1.0682678125 -4.8573885600
282 1 -4.4609946875 -0.5038793750 -4.0684563360
283 1 -3.9342178125 -0.9710071875 -5.6285117840
284 1 -3.3480471875 -0.9668818750 -4.8597587760
285 1 -2.8030490625 -0.2313937500 -6.4290408402
286 1 -3.3472275000 -0.3849843750 -4.0799706640
287 1 -2.8013693750 -0.8149440625 -5.6783407184
288 1 -6.6857436031 -0.3379531250 -4.8380382720
289 1 -6.1627277500 -0.1949915625 -5.7152811176
290 1 -5.6125817188 -0.1310021875 -4.8460167040
291 1 -5.0228703125 0.5264140625 -6.4485637784
292 1 -5.6415314688 0.4121012500 -3.9949278320
293 1 -5.0781387500 -0.0788781250 -5.7257087728
294 1 -4.5569787500 0.0682087500 -4.8470269600
295 1 -3.8602040625 0.6360237500 -6.4698968104
296 1 -4.4448293750 0.5956171875 -3.9768338880
297 1 -3.9686312500 0.1027162500 -5.6236249944
298 1 -3.3994187500 0.1927609375 -4.8396702240
299 1 -3.3075331250 0.7745509375 -4.0652571920
300 1 -2.8259734375 0.3315031250 -5.6087288992
301 1 -6.1786807500 1.4597156250 -6.4745189518
302 1 -6.6854932625 1.3879728125 -4.0800224720
303 1 -6.0922655313 0.9149593750 -5.6224347056
304 1 -5.5068971250 0.9558496875 -4.8407063840
305 1 -5.6280402188 1.5434178125 -4.1074159520
306 1 -4.9936975000 1.1145196875 -5.7002904728
307 1 -4.4414162500 1.1421740625 -4.8299432720
308 1 -3.9214253125 1.8110121875 -6.4590613744
309 1 -4.5343096875 1.7004081250 -4.0102889040
310 1 -3.9102587500 1.2284293750 -5.7142915848
311 1 -3.3960593750 1.3676284375 -4.8322098720
312 1 -2.8167553125 1.4037887500 -5.6252802600
313 1 -6.1008037188 -1.9162278125 -3.2260841600
314 1 -5.0094059375 -1.7411103125 -3.2242838320
315 1 -3.9385715625 -1.5514937500 -3.2226518800
316 1 -3.9277946875 -2.1142428125 -2.4136311040
317 1 -2.8099962500 -1.4568668750 -3.2152821920
318 1 -2.7949193750 -2.0325831250 -2.5684463600
319 1 -6.1878733438 -0.7512637500 -3.2564436480
320 1 -6.1857246875 -1.3345990625 -2.4873668400
321 1 -4.9974331250 -0.6357953125 -3.2264468160
322 1 -5.0781790625 -1.1762784375 -2.4014821280
323 1 -3.8848215625 -0.4720728125 -3.2427922400
324 1 -3.9381684375 -0.9966728125 -2.3925582000
325 1 -2.8028609375 -0.2756165625 -3.2251904720
326 1 -2.8070803125 -0.8380565625 -2.4474358240
327 1 -6.2288429375 0.3909506250 -3.2290760720
328 1 -6.1007701250 -0.1867140625 -2.4547148480
329 1 -5.0565715625 0.5440978125 -3.2662742160
330 1 -5.0532525000 -0.0345209375 -2.4894909680
331 1 -3.8520071875 0.6452015625 -3.2423518720
332 1 -3.9770834375 0.0964678125 -2.4221664720
333 1 -6.1532408750 1.4721587500 -3.1976415680
334 1 -6.0896062500 0.9162493750 -2.3681307280
335 1 -5.1080103125 1.6659543750 -3.2136113840
336 1 -4.9596468750 1.1017943750 -2.4415944720
337 1 -2.7536931250 1.9628693750 -3.2527523280
338 1 -3.9046015625 1.2375937500 -2.4763705920
339 1 -2.7687834375 0.8520450000 -3.2010608960
340 1 -2.8230709375 1.4218890625 -2.4011712800
341 1 -2.7604656250 -1.9202590625 -5.6429429024
342 1 -2.2574865625 -1.2589728125 -4.0547142640
343 1 -2.2423559375 -0.1822125000 -4.0186170400
344 1 -6.1553115938 2.0019725000 -5.6178043656
345 1 -5.5793131563 2.1289837500 -4.8817512720
346 1 -4.9668090625 2.2082918750 -5.6022127480
347 1 -3.3492834375 1.8852275000 -3.9592062160
348 1 -6.1728690313 2.0184871875 -2.3675219840
349 1 -3.9642775000 1.8144521875 -3.2485817840
350 1 -2.8252612500 0.2823353125 -2.3893979120
351 1 -2.2401925000 -0.7397881250 -4.8800675120
352 1 -2.2580375000 1.5142853125 -4.8137144160
353 1 -6.6879993563 -1.9651268750 -4.0048879200
354 1 -6.6819848656 0.8150381250 -4.8715839520
355 1 -4.9969225000 2.2190821875 -2.3737389440
356 1 -6.1532744688 -0.7784209375 -6.4519744286
357 1 -2.2366315625 0.9077703125 -4.0803462720
358 1 -2.2092593750 -1.8725425000 -4.7793657120
359 1 1.6268781250 -1.6436884375 -3.2934216080
360 1 -1.7095187500 1.0498046875 -3.2173933680
361 1 -1.7130796875 -1.7960428125 -5.6943286672
362 1 -1.1009209375 -1.2241159375 -4.0151070480
363 1 -0.6430650000 -1.8474009375 -5.6581317128
364 1 -0.5226515625 -1.2719400000 -3.1964370320
365 1 -1.1681621875 -1.7995231250 -4.8086631360
366 1 -0.0540590625 -1.9195065625 -4.9030832160
367 1 -0.0174284375 -1.3745487500 -4.0924693440
368 1 0.5750712500 -2.0008034375 -5.5755808456
369 1 1.1974021875 -2.0808506250 -4.8801322720
370 1 1.6509178125 -1.6428150000 -6.4229726987
371 1 1.0541718750 -1.5386743750 -4.0603224800
372 1 1.7528546875 -2.2238793750 -5.6622737624
373 1 -1.6606196875 -0.7015181250 -5.6690385920
374 1 -1.1110662500 -0.6946381250 -4.8708327360
375 1 -0.6035587500 -0.1517362500 -3.2329098640
376 1 -0.5166181250 -0.7126175000 -5.6192252000
377 1 0.0641775000 -0.7816862500 -4.8582952000
378 1 0.6194553125 -0.9063862500 -5.6781956560
379 1 -0.0544890625 -0.2481503125 -4.0359079600
380 1 1.1748675000 -0.9606603125 -4.8110981120
381 1 1.7258184375 -0.4709709375 -6.4606832238
382 1 1.1549531250 -0.3997790625 -3.9894361840
383 1 1.7102175000 -1.0526668750 -5.7014652192
384 1 -2.2195659375 0.3405331250 -4.8897815120
385 1 -1.7009993750 1.0105671875 -6.4683237123
386 1 -1.6351690625 0.4633250000 -5.6392891432
387 1 -1.1719918750 -0.1315531250 -4.0634309600
388 1 -0.5614456250 0.9610634375 -6.4509167682
389 1 -1.0630003125 0.4425506250 -4.8519098640
390 1 -0.5237534375 0.3751078125 -5.6967662336
391 1 0.0054287500 0.3456528125 -4.8037543280
392 1 0.0502428125 0.9058487500 -3.9998236880
393 1 0.5440843750 0.2454359375 -5.7059595632
394 1 1.0621403125 0.1231278125 -4.8662088720
395 1 1.6820659375 0.0725356250 -5.6142231376
396 1 1.1462187500 0.6980109375 -4.0834547520
397 1 -2.1859721875 2.0841831250 -4.0335636480
398 1 -1.7083362500 1.5627409375 -5.6319362928
399 1 -1.1539184375 0.9949931250 -4.0265177600
400 1 -0.5242506250 2.1249659375 -6.4540604777
401 1 -1.1213056250 1.5486450000 -4.8358752880
402 1 -0.6000515625 1.5439015625 -5.6984098424
403 1 -0.0475821875 1.4247915625 -4.8845748080
404 1 0.5523887500 1.8964343750 -6.4703665665
405 1 0.0129134375 2.0001315625 -4.0875993920
406 1 0.5580862500 1.3651290625 -5.6044625104
407 1 1.1600593750 1.2673040625 -4.8829946640
408 1 1.7197581250 1.1519834375 -5.6707495512
409 1 -1.6726059375 -1.2582203125 -3.2620648160
410 1 -0.5492040625 -0.7067587500 -2.4121804800
411 1 0.5238206250 -1.4263234375 -3.1987295360
412 1 0.5423106250 -1.9932381250 -2.4069090160
413 1 1.6548146875 -1.0867712500 -2.4650894000
414 1 -1.6959737500 -0.7208950000 -2.4738190480
415 1 -0.5209987500 0.4241815625 -2.4333570000
416 1 -0.5666190625 0.9553256250 -3.2932143760
417 1 0.5474840625 -0.3345265625 -3.3034723600
418 1 1.7411237500 -0.4986253125 -3.2230274880
419 1 -1.6930309375 1.5988878125 -2.3745549200
420 1 -1.6789081250 -0.0823450000 -3.1815940400
421 1 -0.5166181250 2.0721296875 -3.2128990240
422 1 -1.6700662500 0.4837231250 -2.4134886320
423 1 -0.6046068750 1.4817934375 -2.4327223520
424 1 0.6178428125 0.7825193750 -3.2166421520
425 1 1.6854925000 0.6562471875 -3.1723851680
426 1 1.6301165625 0.0608584375 -2.4365561440
427 1 -1.6142871875 2.1337271875 -3.2388289280
428 1 0.5429287500 1.9353762500 -3.1765686640
429 1 1.0623956250 1.8091981250 -4.0589754720
430 1 1.7456521875 1.2323396875 -2.4011583280
431 1 2.1888881250 0.5155834375 -4.0697256320
432 1 1.6334356250 1.7570471875 -3.2786304240
433 1 1.6800637500 1.7378718750 -6.4358232846
434 1 -1.6788946875 -1.8135921875 -2.3910946240
435 1 -0.6426081250 -1.8615237500 -2.4408691600
436 1 1.7411371875 -2.1523112500 -2.4069996800
437 1 0.6142818750 -0.8506609375 -2.4054842960
438 1 0.5079509375 0.1989959375 -2.4429285280
439 1 0.5369356250 1.3461150000 -2.4267644320
440 1 -1.0676631250 2.1386453125 -4.0591697520
441 1 0.5662025000 -0.3300787500 -6.4674669504
442 1 2.2366450000 -0.0176568750 -4.8662736320
443 1 2.2389562500 1.6496278125 -3.9915214560
444 1 2.2075528125 2.1954456250 -4.8413798880
445 1 -1.7246896875 -0.1083734375 -6.4282094514
446 1 0.5146025000 -1.4768215625 -6.4586747572
447 1 0.5861706250 0.8384865625 -6.4683486319
448 1 -0.5321653125 -1.2689971875 -6.4351580698
449 1 6.6859356250 0.2473978125 -4.0835583680
450 1 6.6789615625 1.9526971875 -4.8629061120
451 1 2.2481071875 -1.6668009375 -3.9615764320
452 1 6.6731700000 -1.4351518750 -4.8518062480
453 1 6.6698643750 -0.8810296875 -4.0049267760
454 1 2.8611662500 -1.8107300000 -3.2422353040
455 1 3.3612965625 -0.3253084375 -4.8366912640
456 1 3.9392434375 -1.9451453125 -6.4745068157
457 1 4.4828171875 -2.0378640625 -4.0702825680
458 1 5.0453512500 -2.0777062500 -6.4656821260
459 1 6.1711584375 -2.0369234375 -6.4154974519
460 1 5.5790215625 -2.1425153125 -4.0069731920
461 1 2.2495987500 -1.1558400000 -4.8726848720
462 1 2.8444365625 -0.6373271875 -3.1842880560
463 1 2.3076890625 -2.2140162500 -4.8169912720
464 1 2.8954050000 -1.2303106250 -5.4888063312
465 1 3.8881003125 -0.8432703125 -3.2173933680
466 1 3.8068706250 -1.4253828125 -5.5285612000
467 1 4.4237593750 -1.4665821875 -4.8853130720
468 1 4.4665578125 -0.9254137500 -4.0189408400
469 1 5.0111259375 -1.5249009375 -5.6424066896
470 1 5.5884143750 -1.5965496875 -4.8301634560
471 1 5.5419340625 -0.9985540625 -4.0956555360
472 1 6.1167903125 -1.4468693750 -5.6895830544
473 1 2.2675378125 -0.5896912500 -4.0378766640
474 1 2.8098484375 -0.1035493750 -5.6749136192
475 1 3.3423900000 -0.8619618750 -4.1372055520
476 1 3.3481815625 0.3049103125 -4.0224249280
477 1 3.9023575000 -0.2751193750 -5.7202028776
478 1 4.4234771875 -0.3761021875 -4.8659109760
479 1 4.5289346875 0.1665981250 -4.0407908640
480 1 6.1799868750 -0.3677843750 -5.6337016504
481 1 5.5960065625 -0.4215209375 -4.8549535840
482 1 5.6189040625 0.1530396875 -4.0755799360
483 1 6.1367584375 0.1897912500 -6.4758934749
484 1 2.2826818750 1.1225553125 -4.8346189440
485 1 2.8129659375 1.0241928125 -5.6949335256
486 1 3.3288584375 0.8117862500 -4.8260576720
487 1 3.3961131250 1.4540718750 -4.0938552080
488 1 3.9137793750 0.8303568750 -5.6191837536
489 1 4.4682912500 0.7359853125 -4.8242184880
490 1 5.0245365625 0.6879059375 -5.6639070096
491 1 4.4865393750 1.3264290625 -4.0633273440
492 1 5.0354881250 -0.4091853125 -5.6222145216
493 1 5.5851490625 0.7317928125 -4.8733454240
494 1 6.1900112500 1.2969875000 -6.4318604906
495 1 6.2090118750 1.2816015625 -3.2291926400
496 1 6.1757809375 0.7349640625 -5.6338363512
497 1 3.3986259375 -1.7789771875 -4.1551829280
498 1 4.9853259375 -2.0758518750 -3.2155541840
499 1 6.1479250000 -2.0439378125 -3.2649401600
500 1 2.8219287500 -0.0689746875 -2.3885948880
501 1 2.7319243750 -1.2368009375 -2.4652318720
502 1 3.9135106250 -1.9725040625 -3.2095833120
503 1 3.9201487500 -1.3986959375 -2.4112867920
504 1 5.0110050000 -0.9860840625 -3.2221467520
505 1 5.0796840625 -1.5141106250 -2.3859008720
506 1 6.0667625000 -0.9090468750 -3.2443076240
507 1 6.1943515625 -1.4925971875 -2.4581859840
508 1 2.8455384375 1.5514131250 -3.2863627680
509 1 2.7619571875 0.4578021875 -3.2719342400
510 1 3.9333443750 0.2464975000 -3.2929423840
511 1 3.9416756250 -0.2806825000 -2.4088129600
512 1 5.0753034375 0.1294703125 -3.2106583280
513 1 5.0193765625 -0.4163206250 -2.4021038240
514 1 6.1455734375 0.1705756250 -3.1969680640
515 1 6.2240350000 -0.3776071875 -2.3852532720
516 1 3.9419040625 1.3625221875 -3.2299827120
517 1 3.8950475000 0.7837018750 -2.4521503520
518 1 5.6409684375 1.2557746875 -4.0086828560
519 1 5.0199409375 1.8158093750 -2.4594034720
520 1 6.1647084375 0.7507531250 -2.3848517600
521 1 3.3834281250 2.0335371875 -4.8312643760
522 1 3.9307912500 1.8754584375 -5.6392619440
523 1 4.5244331250 1.9105571875 -4.8446178880
524 1 5.0338756250 1.8059328125 -5.7086755976
525 1 5.5827034375 1.8042128125 -4.8471305760
526 1 6.1394325000 1.8804706250 -5.6825125576
527 1 3.9246503125 1.9411946875 -2.4286554240
528 1 5.0532793750 1.2449978125 -3.2517809280
529 1 6.1306443750 1.8400237500 -2.4223607520
530 1 2.8353931250 0.9978284375 -2.4356754080
531 1 5.0278959375 0.7059659375 -2.4279171600
532 1 2.7750856250 2.0826781250 -2.4363877680
533 1 2.8126703125 1.5973290625 -6.4649054981
534 1 2.8128584375 2.1359712500 -5.6054662904
535 1 2.7829062500 -1.7191803125 -6.4659100552
536 1 2.7920034375 -0.7041518750 -6.4477882126
537 1 3.9256715625 -0.9042496875 -6.4257918310
538 1 2.8090018750 0.4373234375 -6.4621289261
539 1 3.9620603125 0.2946575000 -6.4694123538
540 1 4.9827056250 -0.9630253125 -6.4460163790
541 1 5.0527821875 1.2263868750 -6.4736240592
542 1 -5.0200350000 6.7111175000 -5.6735251648
543 1 -6.6669769250 6.4354203125 -4.8169394640
544 1 -5.5533008438 6.5505931250 -4.8424419520
545 1 -3.3449700000 6.4271428125 -4.0250671360
546 1 -6.1379463125 6.5323584375 -5.6465694624
547 1 -3.9564703125 2.9322506250 -3.2020452480
548 1 -6.0940769063 2.5589165625 -3.2447091360
549 1 -5.0315912500 2.7420831250 -6.4608332080
550 1 -5.5444307500 2.6818696875 -4.0771082720
551 1 -4.3855565625 2.2400446875 -4.8454209120
552 1 -4.4867140625 2.8346540625 -4.0963678960
553 1 -3.8584840625 2.3992656250 -5.6927886744
554 1 -3.3098309375 2.4460550000 -4.8139216480
555 1 -2.8056021875 3.1085775000 -6.4586975527
556 1 -2.7960615625 2.5152715625 -5.7170568368
557 1 -6.6753071000 2.5117375000 -4.0330196640
558 1 -6.1648145938 3.1432865625 -5.7126738800
559 1 -6.7033727969 3.6120268750 -3.9975700400
560 1 -6.1027158750 2.5486637500 -6.4448659824
561 1 -5.6391154063 3.2682418750 -4.8414576000
562 1 -5.5539095625 3.8215578125 -4.0148350560
563 1 -5.0588559375 3.3013787500 -5.6316655960
564 1 -4.4847521875 3.4095371875 -4.8809352960
565 1 -3.8649340625 4.0413012500 -6.4568717093
566 1 -4.3897087500 3.9640356250 -4.0703991360
567 1 -3.8760737500 3.4929706250 -5.5998451224
568 1 -3.2854553125 3.5473925000 -4.8639811280
569 1 -3.3203659375 4.1304456250 -4.0906690160
570 1 -2.7413171875 3.6880159375 -5.6867672896
571 1 -6.1258176250 5.4129071875 -5.6485834984
572 1 -6.6732549250 4.7044956250 -4.0203526080
573 1 -6.1242615625 4.2768875000 -5.6875599520
574 1 -5.5826349063 4.9393562500 -4.0126850240
575 1 -5.5826187813 4.3640431250 -4.8364322240
576 1 -4.5206840625 4.5440787500 -4.8138309840
577 1 -3.8874015625 5.6990721875 -5.6902928240
578 1 -4.4507821875 5.1249146875 -4.0365814640
579 1 -5.0484015625 4.4277637500 -5.7063014960
580 1 -3.3791550000 4.7016737500 -4.8876832880
581 1 -2.7516775000 5.3335050000 -6.4457307874
582 1 -3.2955334375 5.2387975000 -4.0695831600
583 1 -2.7672515625 4.8030596875 -5.5814519872
584 1 -6.6758311625 5.2536593750 -4.8404602960
585 1 -6.1439636250 5.9645434375 -6.4629429593
586 1 -5.5444267188 5.4688878125 -4.8880329920
587 1 -5.5642268750 5.9951003125 -4.0159877840
588 1 -4.9684753125 5.5497143750 -5.6793665168
589 1 -4.4337165625 5.6856750000 -4.8444883680
590 1 -5.0607506250 6.1267071875 -6.4414480791
591 1 -4.4738140625 6.2297728125 -4.0064810160
592 1 -3.3600871875 5.8547187500 -4.7945843120
593 1 -2.7430775000 6.4500537500 -3.2818943280
594 1 -2.8179378125 5.9123387500 -5.6464917504
595 1 -6.1342590625 3.1067365625 -2.4212598320
596 1 -5.0105884375 2.7676950000 -3.2069799600
597 1 -3.8336381250 2.3680771875 -2.4168691040
598 1 -3.4044712500 3.0095162500 -4.0161302560
599 1 -2.8255837500 3.1087387500 -3.2583864480
600 1 -6.1166008438 3.6729256250 -3.2284802800
601 1 -4.9630196875 3.8620987500 -3.2773740800
602 1 -5.0384578125 3.3242090625 -2.3805387440
603 1 -3.8616687500 4.0681896875 -3.2158391280
604 1 -3.9022365625 3.4988562500 -2.4044740400
605 1 -2.8083300000 4.2273837500 -3.1502631520
606 1 -2.7356465625 3.6265259375 -2.4053418240
607 1 -6.1291810313 4.8570784375 -3.1922923920
608 1 -6.1231959688 4.2480237500 -2.4792070800
609 1 -4.9884971875 4.9476337500 -3.2259934960
610 1 -5.0064631250 4.3765668750 -2.4041372880
611 1 -3.8623540625 5.1438346875 -3.2733589600
612 1 -3.9235618750 4.6154453125 -2.3844113920
613 1 -2.7731237500 5.3752687500 -3.2171861360
614 1 -2.7636503125 4.8248015625 -2.4111572720
615 1 -6.1025304375 6.5349518750 -2.3863541920
616 1 -6.1727467500 6.0033375000 -3.2597852640
617 1 -5.0203709375 6.1299187500 -3.1808557760
618 1 -5.0137596875 5.5241293750 -2.4646878880
619 1 -3.8785328125 6.2206621875 -3.2170436640
620 1 -3.9052062500 5.6745621875 -2.4030752240
621 1 -2.7887784375 5.9110621875 -2.3700605760
622 1 -2.2710718750 2.6550484375 -4.8199054720
623 1 -2.2733965625 4.2998521875 -4.0203008000
624 1 -6.7020880375 3.0616268750 -4.8430377440
625 1 -2.7739434375 2.5294346875 -2.4537693520
626 1 -6.1333936875 5.4430743750 -2.4534066960
627 1 -3.9650031250 4.5904515625 -5.6386635616
628 1 -6.1644316250 4.8597525000 -6.4664499205
629 1 -2.2510096875 5.9649600000 -4.8282336080
630 1 -6.6878019594 4.1622387500 -4.8582952000
631 1 -6.7123232066 5.8398837500 -4.0858638240
632 1 -4.9422856250 3.8545468750 -6.4656050227
633 1 -2.8160968750 4.2628587500 -6.4541420753