ITEM: TIMESTEP
83000
ITEM: NUMBER OF ATOMS
2304
ITEM: BOX BOUNDS pp pp pp
-6.7187500000 6.7187500000
-6.7187500000 6.7187500000
-6.4760000000 6.4760000000
ITEM: ATOMS id type x y z
1 1 -5.5984575625 -6.2257348438 -4.0946323280
2 1 -5.0938740625 -6.6702941063 -5.7117193176
3 1 -4.5123393750 -6.6201661844 -4.9243633520
4 1 -3.9482196875 -5.3690203125 -5.6702470136
5 1 -4.4624459375 -6.0849958438 -4.0119856160
6 1 -3.9149215625 -6.5540976250 -5.6803884296
7 1 -3.3865456250 -6.3847327188 -4.8456670000
8 1 -3.3177187500 -5.8544930000 -3.9831415120
9 1 -2.8027668750 -6.3666337500 -5.6501921368
10 1 -6.6909687750 -5.8087289063 -4.9068911040
11 1 -6.1117337813 -5.7483461563 -5.6819361936
12 1 -5.5769723438 -5.6282982188 -4.8277284800
13 1 -5.6786888438 -5.0698209375 -4.0345998080
14 1 -5.0339696875 -5.5651070313 -5.6866921680
15 1 -4.4762731250 -5.5380331563 -4.8365228880
16 1 -4.5041828125 -4.9764034375 -4.0616435840
17 1 -3.3833206250 -5.3187103125 -4.8538138080
18 1 -2.8238906250 -5.2652021875 -5.6854966984
19 1 -2.7646446875 -4.6878734375 -6.4508117275
20 1 -6.1970699688 -4.5900484375 -5.6384718720
21 1 -5.5871405000 -4.5390128125 -4.8981485040
22 1 -5.0956881250 -3.8632543750 -6.4436541933
23 1 -5.6374088438 -3.9910181250 -4.0564886880
24 1 -5.0178850000 -4.4687481250 -5.6778058008
25 1 -4.4949378125 -4.3786362500 -4.8126264480
26 1 -4.5367687500 -3.8020331250 -4.0497666000
27 1 -3.9603537500 -4.2816981250 -5.6990652136
28 1 -3.4111093750 -4.2219818750 -4.8416259760
29 1 -3.9562418750 -3.7263128125 -3.2571560080
30 1 -2.8699409375 -4.1282821875 -5.6566292808
31 1 -6.2426647500 -3.4951743750 -5.6533964616
32 1 -5.6605011875 -3.4280809375 -4.8569870480
33 1 -5.5930798750 -2.8391556250 -4.1020020160
34 1 -5.0909312500 -3.3255125000 -5.6197640032
35 1 -4.4801431250 -3.2676506250 -4.9039639520
36 1 -3.9528421875 -2.5901453125 -6.4405310775
37 1 -4.4929759375 -2.7151140625 -4.0826517280
38 1 -3.8948862500 -3.1647596875 -5.6482778312
39 1 -3.3323387500 -3.0604443750 -4.8382973120
40 1 -3.4097253125 -2.5077196875 -4.0355841600
41 1 -2.7959406250 -3.0119887500 -5.6988696384
42 1 -6.1466780000 -6.2988093125 -3.2794593520
43 1 -5.0647684375 -6.0819294063 -3.2466389840
44 1 -5.0421396875 -6.6827525500 -2.4937392240
45 1 -3.8745553125 -5.9734592188 -3.2280140080
46 1 -3.9627859375 -6.5494952813 -2.4594423280
47 1 -2.6322987500 -5.8520729063 -3.2508354320
48 1 -2.8365353125 -6.3580095625 -2.3517075920
49 1 -6.2233335625 -5.1873990625 -3.2229886320
50 1 -6.1677332188 -5.7530600313 -2.4355070320
51 1 -5.0753840625 -5.0046893750 -3.2679320720
52 1 -5.0222925000 -5.5406427188 -2.4199257760
53 1 -3.9652584375 -4.7945537500 -3.2605235280
54 1 -3.9113740625 -5.3824457188 -2.5001763680
55 1 -2.8212703125 -4.1649665625 -2.4784688160
56 1 -6.2184866563 -4.0370953125 -3.2261489200
57 1 -6.1601249063 -4.6144106250 -2.4545205680
58 1 -5.0923556250 -3.8868506250 -3.2375207760
59 1 -5.0707212500 -4.4450712500 -2.4349371440
60 1 -3.9502218750 -4.2633559375 -2.4024017200
61 1 -3.3913428125 -3.6509821875 -4.0801778960
62 1 -6.1244107188 -2.9672418750 -3.2593319440
63 1 -6.1707606875 -3.4971362500 -2.3811992960
64 1 -5.0590440625 -2.7712962500 -3.2383238000
65 1 -5.0385921875 -3.3374718750 -2.4175296560
66 1 -3.9602596875 -2.6174637500 -3.2230663440
67 1 -3.9481121875 -3.1675278125 -2.4166618720
68 1 -2.8308781250 -2.4373475000 -3.2594614640
69 1 -2.8757056250 -3.5699943750 -3.2104899520
70 1 -2.2654415625 -6.3180652500 -4.8115773360
71 1 -2.2971137500 -5.1995196875 -4.8383879760
72 1 -3.3447953125 -4.7807668750 -4.0135398560
73 1 -2.2658850000 -4.0807537500 -4.9229127280
74 1 -2.2870759375 -3.5489512500 -4.0163504400
75 1 -2.8728434375 -5.2919025000 -2.4343154480
76 1 -6.1301270313 -2.4073818750 -5.7112828352
77 1 -5.0711781250 -2.2514396875 -5.6478232160
78 1 -6.1739319375 -2.4185484375 -2.4347040080
79 1 -5.0409437500 -2.2435384375 -2.3682732000
80 1 -2.7923393750 -4.7235500000 -3.2425461520
81 1 -2.7841559375 -2.9846568750 -2.4460758640
82 1 -6.7156836431 -2.4390675000 -4.8873724400
83 1 -6.2335205313 -5.1624456250 -6.4231387434
84 1 -2.8462640625 -2.4423731250 -6.4602835251
85 1 -3.9410709375 -5.9613815938 -6.4243050710
86 1 -2.1666221875 -5.7394545625 -4.0092916000
87 1 -2.2386875000 -3.0004862500 -4.8618051920
88 1 -2.2317134375 -2.4668025000 -4.0004712880
89 1 -1.6758981250 -4.8213078125 -3.2267835680
90 1 -1.7038212500 -5.2111968750 -5.6129939928
91 1 -2.2344681250 -4.5788818750 -4.0735464720
92 1 -1.6905450000 -5.7562957813 -6.4594837391
93 1 -1.7235878125 -6.3245233125 -5.6428405816
94 1 -1.1301071875 -6.3321867188 -4.8536065760
95 1 -0.5895568750 -5.8642513125 -6.4222978995
96 1 -1.2200443750 -5.7967251875 -3.9324085280
97 1 -0.5940718750 -6.4456113125 -5.6753319688
98 1 -0.0161518750 -6.4719259688 -4.8868155040
99 1 -0.1260706250 -5.9377530938 -4.0148221040
100 1 0.5542565625 -6.5858941094 -5.6585422912
101 1 1.1255653125 -6.6869164281 -4.8613777760
102 1 1.0270818750 -6.1420084688 -4.0029710240
103 1 1.6807490625 -6.7119068053 -5.6972389816
104 1 -1.1105825000 -5.2711684375 -4.8571036160
105 1 -0.5647646875 -5.2776856250 -5.6611650712
106 1 -0.5585296875 -4.1469468750 -5.6883798136
107 1 -1.1541737500 -4.6820012500 -4.0834029440
108 1 -0.5743321875 -4.7241412500 -6.4573985966
109 1 0.0123759375 -5.3833554375 -4.8373129600
110 1 -0.0414815625 -4.8459387500 -4.0003806240
111 1 0.5413162500 -5.4330876250 -5.6963724928
112 1 1.0738712500 -5.5903802813 -4.8043760240
113 1 1.1372021875 -4.9889675000 -4.0856824960
114 1 1.6226050000 -5.6305221250 -5.6440930400
115 1 -1.7106475000 -3.5420309375 -6.4395153817
116 1 -1.6651481250 -4.1089456250 -5.6668743128
117 1 -1.1199215625 -4.1212006250 -4.8489827120
118 1 -1.1302953125 -3.5753693750 -4.0029451200
119 1 -0.0243218750 -4.2890081250 -4.8279875200
120 1 1.0829012500 -3.8586184375 -4.0727045920
121 1 0.0351928125 -3.6976237500 -4.0891924880
122 1 0.5359950000 -4.3325725000 -5.6358154168
123 1 1.1379412500 -4.4117193750 -4.8725294480
124 1 1.1376590625 -3.2704053125 -4.8795753360
125 1 1.6967396875 -4.5828996875 -5.6009395664
126 1 -1.6912303125 -2.9258812500 -5.7141063712
127 1 -1.1820834375 -3.0437281250 -4.8363674640
128 1 -1.1086206250 -2.4484871875 -4.0669539040
129 1 -0.6034109375 -3.0380440625 -5.6311941432
130 1 0.4971068750 -2.7214028125 -6.4513636122
131 1 -0.0325859375 -3.1251593750 -4.8552644320
132 1 0.5402681250 -3.2655006250 -5.6291308896
133 1 1.1087953125 -2.7757843750 -3.9747356640
134 1 1.6409068750 -2.8140275000 -6.4384521520
135 1 1.7154715625 -2.8059650000 -3.2803141840
136 1 1.6809103125 -3.4119156250 -5.7266983056
137 1 -1.6472493750 -6.2372655625 -2.5019766960
138 1 -0.7081025000 -5.8219675313 -3.1721002240
139 1 -0.5419343750 -6.4167905625 -2.4240445120
140 1 0.4527631250 -5.9430138750 -3.2342180160
141 1 0.5697096875 -6.5013460313 -2.4512566640
142 1 1.6427209375 -6.1574253125 -3.2881630960
143 1 1.6895103125 -6.7052708438 -2.4314271520
144 1 -1.7449534375 -5.3053534375 -2.4807872240
145 1 -0.5861437500 -4.7017678125 -3.2287263680
146 1 -0.5323803125 -5.2347125000 -2.3856159280
147 1 0.5871246875 -4.8576562500 -3.2924502080
148 1 0.5239818750 -5.3603396875 -2.4244589760
149 1 1.6752262500 -5.0918046875 -3.2149065840
150 1 1.5856518750 -5.6377111875 -2.4030234160
151 1 -1.7086050000 -3.5842784375 -3.2360572000
152 1 -1.6923321875 -4.1503868750 -2.5066912240
153 1 -0.5311306250 -3.6250478125 -3.2763638240
154 1 -0.5606662500 -4.1572803125 -2.4066111200
155 1 0.5460193750 -3.7824412500 -3.1691860240
156 1 0.5088915625 -4.3248593750 -2.3626649840
157 1 1.6237740625 -3.9481659375 -3.2094149360
158 1 1.6599075000 -4.5180906250 -2.4223866560
159 1 -1.6931518750 -2.9875728125 -2.4811498800
160 1 -0.0382834375 -2.5587821875 -4.0744919680
161 1 -0.6179503125 -3.0823206250 -2.4313623920
162 1 0.5024550000 -2.6609475000 -3.2618187280
163 1 0.5735528125 -3.1694493750 -2.4142268960
164 1 2.2141909375 -6.2557636250 -4.0705804640
165 1 2.2079693750 -5.1176315625 -4.0731320080
166 1 2.1792400000 -4.0372968750 -3.9855764880
167 1 2.1893718750 -3.4906190625 -4.8619476640
168 1 -1.6674728125 -2.3867284375 -3.2344122960
169 1 -0.5845850000 -2.5161450000 -3.1984704960
170 1 1.6635356250 -3.3605575000 -2.4641050480
171 1 2.1952843750 -2.3665184375 -4.8752493680
172 1 1.6085628125 -2.2830178125 -2.4076990880
173 1 2.2061821875 -5.6979756875 -4.8484257760
174 1 0.5370162500 -6.0145363125 -6.4562390041
175 1 -1.7035793750 -4.6688728125 -6.4750211409
176 1 1.6340671875 -4.0331312500 -6.4244918388
177 1 6.6816490625 -6.3255499375 -4.0384595040
178 1 6.6698375000 -5.2608215625 -4.0730542960
179 1 6.6757365625 -4.6923615625 -4.8679703440
180 1 6.7087659375 -4.1222621875 -4.0914331840
181 1 6.6557818750 -3.5216865625 -4.8155665520
182 1 6.6976934375 -2.9669731250 -4.0020902880
183 1 3.3359534375 -6.3626710313 -4.1135681520
184 1 5.0978112500 -6.5504560625 -6.4231092128
185 1 4.4495862500 -6.5483100938 -4.0546624560
186 1 5.5527646875 -6.5481555625 -4.0320223600
187 1 2.7483987500 -5.8526198125 -5.6649768448
188 1 3.3363162500 -5.6852839688 -4.8967496880
189 1 3.9128253125 -5.3625568750 -6.4147147626
190 1 3.3309815625 -5.2554734375 -4.1007197680
191 1 3.8740850000 -6.0110963125 -5.7362348632
192 1 4.4105503125 -5.9991678438 -4.8556918480
193 1 4.4805865625 -5.4508358750 -4.0148609600
194 1 4.9662850000 -5.9981210625 -5.6375833648
195 1 5.5557343750 -5.9953798125 -4.8586190000
196 1 6.1479921875 -5.3368375000 -6.4714663208
197 1 5.5852431250 -5.4169680000 -4.1023387680
198 1 6.1256725000 -5.8782464688 -5.6100215088
199 1 2.3567493750 -4.5668687500 -4.8775677760
200 1 2.8486693750 -4.7039984375 -5.6182227152
201 1 3.7967118750 -4.8146159375 -5.5601886888
202 1 3.3595496875 -4.3345746875 -4.1850631920
203 1 3.8790971875 -3.7172693750 -5.6353892960
204 1 4.3750618750 -4.8903228125 -4.8823859200
205 1 4.4419806250 -4.3705065625 -4.0068695760
206 1 4.9948128125 -4.9273028125 -5.6568326272
207 1 5.5116728125 -4.8048200000 -4.8068498560
208 1 5.5637028125 -4.2311731250 -4.0272171680
209 1 6.0769078125 -4.7934250000 -5.6324232880
210 1 2.2785834375 -2.9453790625 -4.0748028160
211 1 2.7763487500 -3.5218612500 -5.6938041112
212 1 3.3121018750 -3.7521531250 -4.8323782480
213 1 3.3375390625 -3.1226465625 -4.1249011520
214 1 4.4917800000 -3.8076500000 -4.8747312880
215 1 4.4572456250 -3.2841518750 -4.0670186640
216 1 5.0235959375 -3.7699040625 -5.6937354656
217 1 5.5882396875 -3.6929609375 -4.8778268160
218 1 6.1227968750 -3.0753734375 -6.4204443388
219 1 5.5752456250 -3.1520343750 -3.9767950320
220 1 6.1452643750 -3.7135203125 -5.7248940920
221 1 2.7947446875 -6.3447118125 -3.2775165520
222 1 3.8745015625 -6.5458967188 -3.2411343840
223 1 4.9899215625 -6.5503069063 -3.2184942880
224 1 6.1297440625 -6.4702073125 -3.2536978240
225 1 2.7653031250 -5.2653500000 -3.2284414240
226 1 2.7447437500 -5.8140958438 -2.4176073680
227 1 3.8698118750 -5.4327597500 -3.2450199840
228 1 3.9088209375 -5.9772378438 -2.4397034800
229 1 5.0329215625 -5.4269789375 -3.2385051280
230 1 5.0531046875 -5.9751725000 -2.4299506240
231 1 6.1002084375 -5.3220025000 -3.2252552320
232 1 6.1875387500 -5.9161146875 -2.4530958480
233 1 2.8084375000 -4.1093218750 -3.2878522480
234 1 2.7645371875 -4.6738178125 -2.4686641520
235 1 3.8385428125 -4.2320465625 -3.2221856080
236 1 3.8920643750 -4.8480350000 -2.5081548000
237 1 5.0018406250 -4.3162996875 -3.2281176240
238 1 4.9779890625 -4.8635553125 -2.4200423440
239 1 6.1457212500 -4.2769009375 -3.2657820400
240 1 6.1107165625 -4.8035165625 -2.3571733360
241 1 2.8155325000 -3.0437415625 -3.2233124320
242 1 2.7162293750 -3.5874362500 -2.3957314400
243 1 3.8775115625 -3.1721503125 -3.2773740800
244 1 3.9315437500 -3.6941300000 -2.4021556320
245 1 4.9845331250 -3.1306956250 -3.2213307760
246 1 5.0339025000 -3.7291346875 -2.4754250960
247 1 6.1611609375 -3.1360034375 -3.1922664880
248 1 6.1268684375 -3.7272265625 -2.4403769840
249 1 2.7848815625 -2.4689121875 -5.6207470600
250 1 3.3809825000 -2.5258737500 -4.8653799440
251 1 3.9271228125 -2.6636081250 -5.6779145976
252 1 4.4712743750 -2.6911684375 -4.8219259840
253 1 5.0042056250 -2.5983959375 -5.6649677784
254 1 5.5964096875 -2.6612028125 -4.8985111600
255 1 6.1631631250 -2.4831559375 -5.6855679344
256 1 2.8017993750 -2.4668428125 -2.4522410160
257 1 3.8814487500 -2.6133115625 -2.3993839040
258 1 4.9917759375 -2.5900378125 -2.3966769360
259 1 6.1419318750 -2.5292868750 -2.4869653280
260 1 2.7605328125 -5.2664653125 -6.4599465141
261 1 6.1541062500 -6.4065888125 -6.4370524294
262 1 2.7484793750 -4.1395159375 -6.4490963646
263 1 4.9457390625 -4.3579290625 -6.4292368040
264 1 5.0331634375 -3.1791243750 -6.4608797057
265 1 -6.1984674688 -1.8072496875 -6.4277172754
266 1 -5.6391705000 -2.2366450000 -4.8119270400
267 1 -5.6212784688 -1.6778734375 -4.0069990960
268 1 -4.5079990625 -2.1243075000 -4.8423901440
269 1 -4.4696618750 -1.5544634375 -4.0648945360
270 1 -3.9408828125 -2.0337118750 -5.6295168592
271 1 -3.3398234375 -1.9756350000 -4.8803654080
272 1 -2.7882543750 -1.2716846875 -6.4550379651
273 1 -3.3429275000 -1.4123484375 -4.0515410240
274 1 -2.7819790625 -1.8566190625 -5.7004238784
275 1 -6.1666877813 -0.6380393750 -6.4435122394
276 1 -6.6774525313 -0.8377340625 -4.0749323360
277 1 -6.1252357813 -1.2185393750 -5.6868527728
278 1 -5.5523293125 -1.1546843750 -4.8882402240
279 1 -5.0663003125 -0.5306737500 -6.4233760240
280 1 -5.6028865625 -0.6208528125 -3.9976348000
281 1 -4.9891556250 -1.1474550000 -5.7188960208
282 1 -4.4857868750 -0.9678090625 -4.8186620800
283 1 -4.4943868750 -0.4082984375 -4.0056132320
284 1 -3.9266525000 -0.9589671875 -5.6723491232
285 1 -3.3859678125 -0.8584950000 -4.8323005360
286 1 -3.3452521875 -0.2585912500 -4.0749193840
287 1 -2.8093915625 -0.7355418750 -5.6158913552
288 1 -6.6722274938 0.3524387500 -4.0815378560
289 1 -6.1708708750 -0.0742959375 -5.6258320152
290 1 -5.5604509375 -0.1064250000 -4.9021377200
291 1 -5.0288231250 0.6447850000 -6.4283659115
292 1 -5.5559896875 0.4443512500 -4.0689355600
293 1 -4.9976750000 0.0539381250 -5.6816642016
294 1 -4.4245253125 0.1117865625 -4.8955322000
295 1 -3.9303478125 0.7473803125 -6.4264263495
296 1 -4.4846581250 0.6442340625 -4.0185911360
297 1 -3.8453421875 0.1452593750 -5.6929453936
298 1 -3.3288853125 0.3274718750 -4.8191413040
299 1 -3.3761450000 0.8814193750 -4.0092138880
300 1 -2.7631531250 0.3293800000 -5.6413511016
301 1 -6.1599959063 0.9923459375 -5.6331110392
302 1 -5.5867817188 1.0304546875 -4.8225735840
303 1 -5.5589445938 1.6162625000 -4.0594806000
304 1 -5.0508337500 1.2090525000 -5.6369849824
305 1 -4.4434184375 1.1781596875 -4.8877091920
306 1 -3.8954775000 1.8977378125 -6.4393639728
307 1 -4.4290940625 1.7320400000 -4.0639619920
308 1 -3.8791509375 1.3282968750 -5.6577638760
309 1 -3.2926846875 1.4111256250 -4.8833573200
310 1 -2.7966259375 2.0492456250 -6.4183139938
311 1 -2.7251250000 1.4438996875 -5.6986442736
312 1 -6.1672978438 -1.8456003125 -3.2079902160
313 1 -5.0215668750 -1.7190056250 -3.2610545600
314 1 -3.9179315625 -1.4829490625 -3.2434268880
315 1 -3.9033653125 -2.0419625000 -2.4344579200
316 1 -2.7852309375 -1.3044721875 -3.2295941520
317 1 -2.8057634375 -1.8809543750 -2.4358049280
318 1 -6.1721662500 -0.6333765625 -3.1896760880
319 1 -6.1493251875 -1.2466237500 -2.4868228560
320 1 -5.0312821875 -0.5718059375 -3.1902589280
321 1 -5.0295487500 -1.1647221875 -2.4458686320
322 1 -3.8867431250 -0.4222600000 -3.2532963120
323 1 -3.9048434375 -0.9582415625 -2.3789067920
324 1 -2.7946103125 -0.2115196875 -3.2335574640
325 1 -2.7738090625 -0.7673753125 -2.3994486640
326 1 -6.1258135938 0.4681087500 -3.2460431920
327 1 -6.1605011563 -0.0749409375 -2.3933741760
328 1 -5.0478103125 0.6422318750 -3.1834979840
329 1 -5.0083309375 0.0348568750 -2.4776916960
330 1 -3.9232528125 0.7169040625 -3.1994937040
331 1 -3.8830612500 0.1263931250 -2.4400661360
332 1 -6.1276061563 1.5263925000 -3.2773870320
333 1 -6.1669860938 1.0081753125 -2.3800854240
334 1 -4.9985753125 1.7394171875 -3.2562234640
335 1 -5.0406615625 1.2082462500 -2.3932058000
336 1 -2.8051453125 2.0205968750 -3.2151267680
337 1 -3.8674603125 1.3056681250 -2.4679776960
338 1 -2.7733253125 0.8677131250 -3.2631786880
339 1 -2.7568240625 1.4232865625 -2.4449231360
340 1 -2.2617731250 -1.9142525000 -4.8312384720
341 1 -6.7005115500 2.0664993750 -4.8556529920
342 1 -6.1468231250 2.0827318750 -5.6656775480
343 1 -5.5983876875 2.1939540625 -4.8137662240
344 1 -3.3555856250 1.9491631250 -4.0282792320
345 1 -6.1210405938 2.0785796875 -2.4344967760
346 1 -3.9178375000 1.9115112500 -3.1836145520
347 1 -2.7746018750 0.3383159375 -2.3896440000
348 1 -2.2473009375 2.1007515625 -4.0323461600
349 1 -6.6799072938 -1.3760806250 -4.8945996560
350 1 -6.7179034509 1.5088968750 -4.0376046720
351 1 -2.2055506250 0.9659412500 -4.0179305840
352 1 -2.2154271875 1.5184106250 -4.8215374240
353 1 1.6907734375 -1.7064684375 -3.1838347360
354 1 -1.6147440625 0.9611171875 -3.2563918400
355 1 -2.2265534375 -1.3275309375 -4.0546754080
356 1 -1.6965112500 -1.8367181250 -5.6404936792
357 1 -1.1395671875 -1.3133275000 -4.0574600880
358 1 -0.5626415625 -1.9674381250 -5.6193754432
359 1 -0.5896375000 -1.3968146875 -3.2468850720
360 1 -1.1326871875 -1.8780653125 -4.8454079600
361 1 0.0353406250 -1.9860893750 -4.8551867200
362 1 0.0081028125 -1.4559128125 -3.9770411200
363 1 0.5635150000 -2.1141890625 -5.7228036392
364 1 1.0819068750 -2.2328421875 -4.8374554320
365 1 1.1631231250 -1.6456503125 -4.0520720560
366 1 1.6493053125 -2.2249946875 -5.6841393288
367 1 -2.2339978125 -0.7661793750 -4.8580620640
368 1 -1.6788812500 -0.1840400000 -6.4460773830
369 1 -2.2384321875 -0.2061312500 -4.0662285920
370 1 -1.6624337500 -0.7451362500 -5.6361728920
371 1 -1.0879268750 -0.7298578125 -4.8542671280
372 1 -0.5098993750 -0.2620312500 -3.2496179440
373 1 -0.5476050000 -0.8278709375 -5.7150700000
374 1 -0.0389687500 -0.9277518750 -4.8293863360
375 1 0.5362503125 -0.9594643750 -5.6704115040
376 1 0.0556043750 -0.3334650000 -4.0554784320
377 1 0.5777721875 -1.5310418750 -6.4591836413
378 1 1.0847959375 -1.0992278125 -4.8570129520
379 1 1.6722431250 -0.6185684375 -6.4567599335
380 1 1.1041862500 -0.5069968750 -4.0918865040
381 1 1.6673384375 -1.1494975000 -5.5917591888
382 1 -2.2097162500 0.4021306250 -4.8105282240
383 1 -1.6766640625 0.3973468750 -5.6740549016
384 1 -1.0987306250 -0.2056878125 -3.9920265840
385 1 -1.1326065625 0.3493615625 -4.8403437280
386 1 -0.5623459375 0.3413528125 -5.6518176128
387 1 -0.0025128125 0.2026643750 -4.8753529840
388 1 0.5470271875 0.6573221875 -6.4422404825
389 1 0.0091912500 0.7757200000 -4.0690262240
390 1 0.5999978125 0.1100934375 -5.5947886616
391 1 1.2023471875 0.0691896875 -4.8563135440
392 1 1.7470093750 -0.0398018750 -5.6862414384
393 1 1.1071425000 0.6105596875 -3.9894750400
394 1 -1.6404231250 1.5049193750 -5.6456848408
395 1 -1.0457868750 0.9209256250 -4.0589754720
396 1 -1.1041728125 1.4961984375 -4.8292309120
397 1 -0.5241296875 1.4297903125 -5.6131468264
398 1 0.0646746875 1.3531831250 -4.8530107840
399 1 0.0181675000 1.8808468750 -3.9863536080
400 1 0.5994065625 1.2463818750 -5.7008474088
401 1 1.1284140625 1.1505053125 -4.8229621440
402 1 1.6879381250 1.1185509375 -5.6750755192
403 1 -1.6880187500 -1.2814403125 -3.2068374880
404 1 -0.5533159375 -0.8299268750 -2.4365302400
405 1 0.6078050000 -1.5434446875 -3.2480118960
406 1 0.5753803125 -2.1095262500 -2.4181513520
407 1 1.7180381250 -1.1194915625 -2.4314530560
408 1 -1.6370100000 -0.6850706250 -2.4361028240
409 1 -0.5624265625 0.2538209375 -2.4033472160
410 1 -0.5315471875 0.8496665625 -3.1763225760
411 1 0.5811853125 -0.4542950000 -3.1797807600
412 1 1.6452875000 -0.5753265625 -3.2419244560
413 1 -1.6983253125 1.5016003125 -2.3990860080
414 1 -1.6925740625 -0.1420075000 -3.2460950000
415 1 -0.5673178125 1.9733371875 -3.2320809360
416 1 -1.6725387500 0.4205131250 -2.4169209120
417 1 -0.5246268750 1.4276537500 -2.4130612160
418 1 0.5407518750 0.6660028125 -3.2123161840
419 1 1.7200268750 0.5150862500 -3.2725818400
420 1 1.7034853125 -0.0308256250 -2.4054195360
421 1 -1.6715981250 2.0476196875 -3.2410825760
422 1 0.6041903125 1.7997112500 -3.2529466080
423 1 1.1861012500 1.7354665625 -4.0290563520
424 1 1.6439706250 1.0149478125 -2.3883228960
425 1 2.2253978125 -1.8056506250 -4.0981164160
426 1 1.7178634375 1.6142468750 -3.1902330240
427 1 1.6797815625 2.1973403125 -5.5933354472
428 1 -1.6851162500 -1.8453315625 -2.4033472160
429 1 -0.4934115625 -1.9297996875 -2.4214152560
430 1 0.5235384375 -1.0261278125 -2.3790622160
431 1 0.6158943750 0.1060890625 -2.3897476160
432 1 0.5996484375 1.2441646875 -2.4261297840
433 1 -1.1175834375 2.0762818750 -4.0553230080
434 1 1.7176887500 2.1737978125 -2.4130612160
435 1 2.2081575000 -0.7161381250 -4.0168944240
436 1 2.2286631250 1.0039021875 -4.8465606880
437 1 -0.5289537500 -0.2329659375 -6.4317478082
438 1 -0.5727062500 1.9589053125 -6.4741029853
439 1 0.5947840625 1.8363284375 -6.4465607516
440 1 1.6837053125 0.5471346875 -6.4472519998
441 1 -0.5786859375 -1.4379200000 -6.4515815944
442 1 6.6809503125 -1.9168325000 -3.9978808880
443 1 6.7156459375 -0.2376421875 -4.8160328240
444 1 2.2733562500 -0.1364846875 -4.8133906160
445 1 2.2861218750 0.4442168750 -4.0430704160
446 1 6.7144096875 0.9447100000 -4.8243221040
447 1 2.7755693750 -1.9328365625 -6.4454268040
448 1 3.8896590625 -2.0820331250 -6.4511093645
449 1 3.3189550000 -1.9811981250 -4.0100687200
450 1 4.4955021875 -2.1013159375 -4.0852032720
451 1 5.6114731250 -2.0897462500 -4.0807218800
452 1 2.2952459375 -1.2183378125 -4.8837976880
453 1 2.7960481250 -0.7650909375 -6.4483114734
454 1 2.8131003125 -0.7404062500 -3.2918285120
455 1 2.8328265625 -1.3302721875 -5.6944931576
456 1 3.3794775000 -1.4461840625 -4.8601473360
457 1 3.9432746875 -0.9207912500 -6.4753646850
458 1 3.4025093750 -0.8792828125 -4.0285900800
459 1 3.9481659375 -1.5070828125 -5.6990121104
460 1 4.4629028125 -1.5229659375 -4.8432708800
461 1 4.4948034375 -0.9509450000 -4.0533672560
462 1 5.0520162500 -1.5447615625 -5.6346588032
463 1 5.6087050000 -1.5018825000 -4.8211747680
464 1 5.6289284375 -0.9101487500 -4.0870424560
465 1 6.1485700000 -1.3461284375 -5.6364319320
466 1 2.8249387500 -0.1687481250 -5.6909572616
467 1 3.3557737500 -0.3348893750 -4.8481537840
468 1 3.3835356250 0.2581075000 -4.0866668480
469 1 3.9263165625 -0.3757528125 -5.6415661048
470 1 4.5068837500 -0.3940278125 -4.8775159680
471 1 5.0746450000 0.1057934375 -6.4532105674
472 1 4.4622712500 0.1449368750 -4.0179564880
473 1 5.0618659375 -0.4666037500 -5.6854151008
474 1 5.5912093750 -0.3084309375 -4.8305390640
475 1 5.6202746875 0.2445893750 -4.0240309760
476 1 6.1609593750 -0.2938109375 -5.6482493368
477 1 2.8077925000 0.8994928125 -5.6029302888
478 1 3.4068228125 0.8378684375 -4.8594997360
479 1 3.9176225000 1.2879978125 -6.4495845255
480 1 3.3367193750 1.3832428125 -4.0263752880
481 1 3.9507996875 0.7319540625 -5.6726029824
482 1 4.5139115625 0.6944903125 -4.8589039440
483 1 5.0649296875 1.3084631250 -6.4426136296
484 1 4.5258440625 1.2506684375 -4.0145371600
485 1 5.0551606250 0.7001878125 -5.7208699056
486 1 5.5930906250 0.7826537500 -4.8769460800
487 1 6.2057062500 1.3691200000 -6.4742446672
488 1 5.6278131250 1.3300840625 -4.0366591760
489 1 6.1770037500 0.7997059375 -5.6621002056
490 1 2.7521343750 -1.8990143750 -3.2339071680
491 1 3.9352928125 -2.1027806250 -3.2980066160
492 1 5.0413334375 -2.0406859375 -3.2469109760
493 1 6.1189940625 -1.9142390625 -3.1840937760
494 1 2.7806218750 -0.2231431250 -2.4175555600
495 1 2.8380268750 -1.3118225000 -2.4793366000
496 1 3.9567256250 -0.9759925000 -3.2102438640
497 1 3.8877106250 -1.5611956250 -2.4455059760
498 1 5.0746718750 -0.9918487500 -3.2682170160
499 1 5.0121203125 -1.5102943750 -2.3790881200
500 1 6.1843406250 -0.8184646875 -3.2685796720
501 1 6.1513112500 -1.3440053125 -2.3922991600
502 1 2.7695628125 1.4655071875 -3.2142330800
503 1 2.8380671875 0.3458275000 -3.2195174960
504 1 3.9023171875 0.1987406250 -3.2005428160
505 1 3.9598968750 -0.3832778125 -2.4656333840
506 1 5.0503634375 0.1236518750 -3.2536848720
507 1 5.0861071875 -0.4382237500 -2.4419571280
508 1 6.2093746875 0.2410015625 -3.2706778960
509 1 6.1408568750 -0.2878043750 -2.3760314480
510 1 2.2526759375 1.5852621875 -4.0889852560
511 1 3.9261956250 1.3334971875 -3.2885516560
512 1 3.9684834375 0.8055646875 -2.4400531840
513 1 5.0748196875 1.2723834375 -3.1978747040
514 1 5.0527418750 0.6712837500 -2.4459722480
515 1 6.1767887500 1.3567037500 -3.2000765440
516 1 6.1780384375 0.7722934375 -2.4300412880
517 1 2.2966568750 2.1777484375 -4.8673875040
518 1 2.8251000000 1.9892203125 -5.6745250592
519 1 3.3833475000 1.9523746875 -4.8221073120
520 1 3.9143706250 1.8840450000 -5.6791955504
521 1 4.4691512500 1.7743143750 -4.8527906000
522 1 5.0351521875 1.8673825000 -5.6587534088
523 1 5.6190115625 1.8703253125 -4.8953897280
524 1 6.1890840625 1.9420815625 -5.6925697856
525 1 3.9055421875 1.8745984375 -2.4292641680
526 1 5.0364018750 1.8366106250 -2.4165582560
527 1 6.2162143750 1.9398106250 -2.4329554880
528 1 2.8251134375 0.9076225000 -2.4160531280
529 1 2.8606153125 2.0499981250 -2.4498448960
530 1 6.1477637500 -1.9151662500 -6.4651889526
531 1 -5.0482671875 2.2806662500 -5.6442860248
532 1 -5.0641771875 2.2810693750 -2.4099527360
533 1 -6.1753939375 6.5955550000 -5.6909637376
534 1 -5.6169757813 6.6301162500 -4.8467161120
535 1 -6.1561581563 6.6059825000 -2.4015857440
536 1 -3.8735340625 3.0117468750 -3.2543583760
537 1 -5.5916608750 2.7743062500 -4.0445598960
538 1 -4.4827365625 2.3106050000 -4.8254618800
539 1 -3.8993340625 3.0288528125 -6.4662353059
540 1 -4.4492637500 2.8929325000 -4.0369700240
541 1 -3.9415412500 2.4709278125 -5.6571110952
542 1 -3.3581790625 2.4920246875 -4.8771403600
543 1 -2.7890740625 2.6147090625 -5.6402009640
544 1 -6.7145311759 3.1694762500 -4.8542412240
545 1 -6.1432447188 3.7671090625 -6.4473696040
546 1 -6.1517425938 3.1794334375 -5.6849799136
547 1 -5.6057998125 3.3307531250 -4.8444365600
548 1 -5.5992906875 3.9053675000 -4.0659695520
549 1 -5.0473400000 3.3767228125 -5.6364733784
550 1 -4.4647571875 3.4446628125 -4.8549535840
551 1 -4.4922771875 4.0026684375 -4.0594935520
552 1 -3.8951281250 3.5813356250 -5.6475926704
553 1 -3.3466900000 3.6452040625 -4.8299044160
554 1 -3.3643065625 4.1962893750 -4.0224767360
555 1 -2.7876631250 3.7199837500 -5.6504019592
556 1 -6.1926906875 4.9231103125 -6.4273780625
557 1 -6.7115969634 4.7958706250 -4.0395733760
558 1 -6.1135585938 4.3389284375 -5.6801008952
559 1 -5.5761123438 4.4796996875 -4.8642790240
560 1 -5.0638009375 5.0266193750 -6.4740176575
561 1 -5.5986456875 5.0153856250 -4.0142651680
562 1 -4.9961968750 4.4702396875 -5.6663899080
563 1 -4.4620696875 4.5954100000 -4.8179108640
564 1 -4.4797400000 5.1832871875 -4.0803462720
565 1 -3.9146528125 4.6960300000 -5.6372802880
566 1 -3.3213737500 4.7516209375 -4.8474543760
567 1 -2.7597265625 5.4246650000 -6.4406227777
568 1 -3.3651800000 5.3195300000 -4.0633791520
569 1 -2.7903775000 4.8325684375 -5.6964035776
570 1 -6.7034606781 5.3448865625 -4.8424678560
571 1 -6.1974730938 5.5212268750 -5.6842558968
572 1 -5.6059220938 5.5474837500 -4.9055052400
573 1 -5.5813758125 6.0804015625 -4.0192128320
574 1 -5.0330962500 5.5980625000 -5.6972946752
575 1 -4.5136696875 5.7559262500 -4.8427009920
576 1 -4.4556196875 6.3264287500 -4.0193164480
577 1 -3.9378459375 5.7427978125 -5.6688378360
578 1 -3.3869621875 5.8820103125 -4.8422994800
579 1 -3.3369881250 6.4723734375 -4.0930003760
580 1 -2.8375834375 5.9885965625 -5.6513383888
581 1 -6.1541062500 2.6436131250 -3.2336740320
582 1 -5.0246306250 2.8244953125 -3.2633600160
583 1 -3.9463518750 2.4747440625 -2.3949931760
584 1 -3.3211184375 3.0526506250 -4.0696867760
585 1 -2.7911703125 3.1620453125 -3.2031332160
586 1 -6.1242521563 3.7576893750 -3.1979006080
587 1 -6.1309803125 3.1992403125 -2.4049014560
588 1 -5.0495303125 3.9418503125 -3.2292185440
589 1 -4.9794940625 3.3747340625 -2.4300283360
590 1 -3.9375503125 4.1279865625 -3.2513276080
591 1 -3.9131075000 3.5711500000 -2.4375664000
592 1 -2.7766578125 4.2617434375 -3.2711182640
593 1 -2.8133287500 3.7477053125 -2.4117919200
594 1 -6.1661852188 4.9183803125 -3.2213566800
595 1 -6.1737370938 4.3431881250 -2.4497542320
596 1 -5.0088684375 5.0216475000 -3.2317571360
597 1 -5.0307715625 4.4962815625 -2.3781167200
598 1 -3.9377384375 5.2443875000 -3.2407587760
599 1 -3.8810859375 4.6858981250 -2.4278783040
600 1 -2.8246028125 5.4032859375 -3.2385310320
601 1 -2.8027668750 4.8323668750 -2.4630947920
602 1 -6.1939793438 6.0722584375 -3.2675823680
603 1 -6.1524897188 5.5037178125 -2.4695189840
604 1 -5.0233809375 6.1722468750 -3.2281694320
605 1 -5.0831643750 5.5985059375 -2.4488734960
606 1 -3.8736146875 6.3069443750 -3.2277420160
607 1 -3.9513909375 5.7808393750 -2.3687135680
608 1 -2.8184081250 6.5270640625 -3.2231440560
609 1 -2.7714440625 5.9688031250 -2.4399366160
610 1 -2.2470859375 4.8895434375 -4.8507182800
611 1 -2.2540734375 6.4852868750 -4.0993598080
612 1 -2.7694553125 2.5877400000 -2.4329684400
613 1 -6.7163951184 6.5312162500 -4.8071736560
614 1 -6.7161465650 2.6119275000 -4.0318928400
615 1 -6.6942456438 3.7298468750 -4.0128145440
616 1 -6.6892382938 4.2445031250 -4.8989126720
617 1 -2.7874078125 3.1657809375 -6.4732771528
618 1 -3.9026665625 4.1330121875 -6.4750230112
619 1 -3.9613212500 6.3243996875 -6.4588212443
620 1 -5.0747793750 6.1762781250 -6.4579515175
621 1 -1.7195700000 6.6983921875 -3.2499417440
622 1 -2.2047578125 2.6334946875 -4.8732288560
623 1 -2.2362553125 3.1899415625 -4.0621746160
624 1 -2.1954859375 4.3272915625 -4.0214923840
625 1 -2.2341725000 5.9528931250 -4.9116703920
626 1 2.2155615625 6.5970465625 -4.8199831840
627 1 1.0934631250 2.2750090625 -4.8538138080
628 1 -1.6801712500 3.1609031250 -6.4587791503
629 1 -1.6373190625 2.6068884375 -5.6418186688
630 1 -1.0697325000 2.6407240625 -4.8401883040
631 1 -1.1245575000 3.1934890625 -3.9870141600
632 1 -0.5317890625 2.5398353125 -5.7031645216
633 1 -0.0119459375 2.4369712500 -4.8162400560
634 1 0.0550265625 3.0158184375 -4.0326181520