ITEM: TIMESTEP
57000
ITEM: NUMBER OF ATOMS
2304
ITEM: BOX BOUNDS pp pp pp
-6.7187500000 6.7187500000
-6.7187500000 6.7187500000
-6.4760000000 6.4760000000
ITEM: ATOMS id type x y z
1 1 -5.6522519063 -6.4572602813 -4.0489117680
2 1 -3.8561728125 -6.2334936563 -6.4571488821
3 1 -4.4498146875 -6.3216530625 -3.9959769440
4 1 -3.3984512500 -6.6644098250 -4.9009331840
5 1 -3.2877665625 -6.1225415625 -4.0500774480
6 1 -2.7793587500 -6.6095536500 -5.6054300248
7 1 -6.7155384375 -6.0000560625 -4.8890432480
8 1 -6.1588604375 -5.4508909688 -6.4261350590
9 1 -6.7000646188 -5.4695153438 -4.0374362960
10 1 -6.1318282188 -6.0364824375 -5.6528848576
11 1 -5.5677582500 -5.9030749375 -4.8733583760
12 1 -5.6163536250 -5.3490118750 -4.0607498960
13 1 -5.0001071875 -5.8265927188 -5.6824387312
14 1 -4.4677403125 -5.7539993125 -4.7997780640
15 1 -4.5351025000 -5.1612900000 -4.0668114320
16 1 -3.9548309375 -5.6376775938 -5.7289338208
17 1 -3.4295725000 -5.5641556563 -4.8557307040
18 1 -2.7466787500 -4.9395981250 -6.4732748215
19 1 -3.3638496875 -5.0320750000 -4.0036445280
20 1 -2.8481050000 -5.4992216250 -5.6530286248
21 1 -6.1778865938 -4.8577100000 -5.6827884352
22 1 -5.6136029688 -4.7958840625 -4.9007518560
23 1 -5.0086937500 -4.1699653125 -6.4150274238
24 1 -5.5479379375 -4.2672931250 -4.0447930320
25 1 -4.9956056250 -4.7331175000 -5.6262749736
26 1 -4.4242162500 -4.5944425000 -4.8756897360
27 1 -4.4733437500 -4.0410996875 -4.0639878960
28 1 -3.8377500000 -4.5402087500 -5.6615963728
29 1 -3.3051009375 -4.4534428125 -4.7900770160
30 1 -3.4214159375 -3.8509321875 -4.0671222800
31 1 -2.7998375000 -4.3532528125 -5.7245171888
32 1 -6.1680893125 -3.7237596875 -5.6769108176
33 1 -5.6203176875 -3.7089246875 -4.8302023120
34 1 -4.9735681250 -3.0170546875 -6.4743625175
35 1 -5.5571614375 -3.1124071875 -4.0736241840
36 1 -5.0746046875 -3.5729103125 -5.6727065984
37 1 -4.4994528125 -3.4873403125 -4.9171879440
38 1 -4.4083734375 -2.9749146875 -4.0209743040
39 1 -3.8750793750 -3.4430234375 -5.6169288104
40 1 -3.3029643750 -3.3008412500 -4.8812331920
41 1 -2.8391556250 -2.6976184375 -6.4546111967
42 1 -3.3406700000 -2.7418009375 -4.0644023600
43 1 -2.7125340625 -3.2612140625 -5.6450786872
44 1 -5.0803425000 -6.3741480000 -3.3006099680
45 1 -3.8721500000 -6.2090159063 -3.2689552800
46 1 -2.7427818750 -6.0652897500 -3.2107360400
47 1 -2.7918556250 -6.6202742219 -2.3686747120
48 1 -6.1628930313 -5.4168134688 -3.2078477440
49 1 -6.1304414688 -5.9946555313 -2.4552717840
50 1 -5.0605490625 -5.2699053125 -3.2023431440
51 1 -4.9883225000 -5.8446110625 -2.4328777760
52 1 -3.9767340625 -5.0810412500 -3.2738511360
53 1 -3.9045209375 -5.6487715938 -2.4669544880
54 1 -2.7943818750 -4.9016103125 -3.2685019600
55 1 -2.8564765625 -5.5003785938 -2.4872243680
56 1 -6.1336516875 -4.2798437500 -3.2715586320
57 1 -6.1654233125 -4.8344631250 -2.4344449680
58 1 -5.0145793750 -4.1355115625 -3.1967608320
59 1 -5.0538034375 -4.7024934375 -2.4049014560
60 1 -3.9243950000 -4.0159043750 -3.1743797760
61 1 -3.8439715625 -4.5611981250 -2.3842689200
62 1 -2.8626578125 -3.8121515625 -3.2648754000
63 1 -2.7105721875 -4.3561687500 -2.3952004080
64 1 -6.0988767813 -3.2247446875 -3.2276513520
65 1 -6.1807608750 -3.7727796875 -2.3827146800
66 1 -5.0111125000 -3.0233300000 -3.2511333280
67 1 -5.0187853125 -3.5681400000 -2.4031917920
68 1 -3.8693550000 -2.8293731250 -3.1907252000
69 1 -3.8994415625 -3.4072662500 -2.4398200480
70 1 -2.8083703125 -2.7122653125 -3.1584747200
71 1 -2.7211609375 -3.2773793750 -2.3854605040
72 1 -2.2909190625 -5.3758089375 -4.8836940720
73 1 -2.2767693750 -4.2701553125 -4.8011898320
74 1 -2.2574193750 -3.7105371875 -3.9675084480
75 1 -2.2948293750 -2.6001831250 -4.0723678400
76 1 -6.1385039688 -2.6699506250 -5.6493709800
77 1 -5.5750521250 -2.5422137500 -4.8455633840
78 1 -5.0441553125 -2.4421581250 -5.6971794024
79 1 -4.4937150000 -2.4089271875 -4.8192319680
80 1 -3.9737106250 -2.2757615625 -5.6849850944
81 1 -6.1357412188 -2.6431562500 -2.4720187200
82 1 -5.0065168750 -2.4788021875 -2.3993450480
83 1 -3.9247443750 -2.2470725000 -2.4241092720
84 1 -6.6674175406 -3.2062009375 -4.0614622560
85 1 -6.7181083271 -2.6528312500 -4.8662347760
86 1 -6.2168096563 -6.5743506250 -3.2242061200
87 1 -2.7946775000 -6.0580240938 -6.4604196506
88 1 -6.1177618438 -4.2967078125 -6.4678963610
89 1 -3.9649762500 -3.9759815625 -6.4750145484
90 1 -3.8707390625 -2.8721446875 -6.4155343651
91 1 -2.2389428125 -5.9535354375 -4.1150317280
92 1 -2.1943034375 -6.5458483438 -4.8634112400
93 1 -1.6563600000 -6.3826163125 -5.7074347960
94 1 -1.1093193750 -6.3764229688 -4.8510679840
95 1 -1.1257937500 -5.8029628750 -4.0399489840
96 1 -0.5773287500 -6.2869990938 -5.7388952040
97 1 -0.0653062500 -6.2658538438 -4.8481149280
98 1 0.5749637500 -5.7842632500 -6.4492038662
99 1 0.0210834375 -5.6964491875 -4.0470466800
100 1 0.5022400000 -6.3539138125 -5.6283822640
101 1 1.1193303125 -6.3840957813 -4.9204000400
102 1 1.0654056250 -5.8673943438 -4.0557892800
103 1 1.7152700000 -6.4879515313 -5.6209672440
104 1 -2.1867918750 -4.8500237500 -4.0208836400
105 1 -1.6865137500 -5.2980165625 -5.6167345304
106 1 -1.1141837500 -5.2546134375 -4.8530884960
107 1 -0.5826231250 -4.5726200000 -6.4513776004
108 1 -1.1034875000 -4.6523581250 -4.1244866880
109 1 -0.5635956250 -5.1564928125 -5.6492336888
110 1 0.0346150000 -5.1558075000 -4.8944830880
111 1 0.4936265625 -4.6480043750 -6.4522197394
112 1 -0.0784615625 -4.6163590625 -4.0164670080
113 1 0.5986675000 -5.2176737500 -5.6635003168
114 1 1.1602475000 -5.2792309375 -4.8481796880
115 1 1.0903725000 -4.7476703125 -4.0067789120
116 1 1.7162106250 -5.3488909375 -5.7048586432
117 1 -1.6404768750 -3.6292671875 -6.4639911258
118 1 -1.7298765625 -4.2039218750 -5.6568326272
119 1 -1.1629350000 -4.0555987500 -4.8860254320
120 1 -0.5512600000 -3.5053062500 -6.4612386056
121 1 -1.0797031250 -3.5507787500 -4.0170628000
122 1 -0.5515287500 -4.0389093750 -5.5944337768
123 1 0.0369934375 -4.0612021875 -4.8453302480
124 1 0.0148484375 -3.4794928125 -4.0495464160
125 1 0.5835771875 -4.0631909375 -5.7086846640
126 1 1.0907487500 -4.1719540625 -4.7833290240
127 1 1.1565521875 -3.5639609375 -4.0701789520
128 1 1.6103500000 -4.2786343750 -5.6651491064
129 1 -2.1640556250 -3.1728087500 -4.8199702320
130 1 -1.6426000000 -3.0391593750 -5.7097480232
131 1 -1.1118321875 -2.9453521875 -4.8129891040
132 1 -1.1257668750 -2.4297418750 -3.9455159520
133 1 -0.5721284375 -2.9160853125 -5.6884912008
134 1 0.5034359375 -3.0009968750 -5.6267347696
135 1 0.6164050000 -2.4270275000 -6.4724621742
136 1 -0.0481331250 -2.8992750000 -4.8137532720
137 1 1.1109721875 -3.0127009375 -4.8983427840
138 1 1.1118053125 -2.4878456250 -4.0390164400
139 1 1.6455025000 -2.5925237500 -6.4189834827
140 1 1.6731568750 -2.5271503125 -3.1962816080
141 1 1.6894296875 -3.1508384375 -5.6318132488
142 1 -1.6892281250 -5.8157110313 -3.2419244560
143 1 -1.6386090625 -6.3731979688 -2.4140714720
144 1 -0.5610693750 -5.7170193125 -3.2610416080
145 1 -0.5863587500 -6.3093429688 -2.4577974240
146 1 0.5405368750 -5.7753783750 -3.1773328320
147 1 0.5393543750 -6.3536087813 -2.4152371520
148 1 1.6453815625 -5.8853844688 -3.2529207040
149 1 1.7177021875 -6.4431105938 -2.4534714560
150 1 -1.6300493750 -4.7313437500 -3.2260064480
151 1 -1.7216259375 -5.2976940625 -2.3846963360
152 1 -0.6199390625 -4.5861381250 -3.1523613760
153 1 -0.5531412500 -5.1970203125 -2.4100434000
154 1 0.5043765625 -4.5955040625 -3.2585159680
155 1 0.5852031250 -5.1655496875 -2.4653872960
156 1 1.6931921875 -4.8192384375 -3.2958436320
157 1 1.6659543750 -5.3441206250 -2.3973892960
158 1 -1.6467253125 -3.6343331250 -3.2629844080
159 1 -1.7854271875 -4.1769662500 -2.3706693200
160 1 -0.5107459375 -3.4500646875 -3.2186626640
161 1 -0.5839803125 -3.9988387500 -2.4057821920
162 1 0.5909812500 -3.5377981250 -3.2532833600
163 1 0.5413700000 -4.1006815625 -2.3707729360
164 1 1.6654706250 -3.7181159375 -3.1818012720
165 1 1.6524093750 -4.2978500000 -2.4220887600
166 1 -1.6601359375 -3.0661418750 -2.5024559200
167 1 0.0661796875 -2.3287993750 -4.0387055920
168 1 -0.6256500000 -2.8771971875 -2.4442237280
169 1 0.5708653125 -2.4219078125 -3.1542653200
170 1 0.5007350000 -3.0242840625 -2.3975835760
171 1 2.1954993750 -6.0450636250 -4.0394179520
172 1 2.2180071875 -5.4516703438 -4.7768012160
173 1 2.1980390625 -4.2903384375 -4.8803524560
174 1 2.2279778125 -3.7607665625 -4.0174384080
175 1 -1.7432871875 -2.4623546875 -3.2526875680
176 1 -0.5117268750 -2.3129296875 -3.2635542960
177 1 1.6793381250 -3.1126759375 -2.4536009760
178 1 2.2015328125 -2.6907115625 -4.0383558880
179 1 1.6136421875 -5.9368930938 -6.4662469886
180 1 -1.6364321875 -4.7411800000 -6.4708687673
181 1 1.7352112500 -3.7088306250 -6.4486952412
182 1 6.7085509375 -4.9082618750 -4.8677501600
183 1 6.7186021875 -4.3724415625 -4.0351178880
184 1 6.7149203125 -3.7982034375 -4.8167322320
185 1 2.2917656250 -4.8438828125 -4.0676792160
186 1 2.2861890625 -3.2265050000 -4.8971252960
187 1 6.6862446875 -6.5718525938 -4.0868611280
188 1 2.3061437500 -6.5917523219 -4.8646805360
189 1 2.8543668750 -6.6471842938 -5.7066110488
190 1 3.4001309375 -6.1368928125 -4.0500774480
191 1 5.0398553125 -6.4484237813 -6.4135317269
192 1 4.5032690625 -6.3278840313 -4.0354416880
193 1 6.1192225000 -6.5807871875 -6.4517576121
194 1 5.5772075000 -6.5674719688 -4.0611643600
195 1 2.7296265625 -5.5661363438 -5.6897721536
196 1 3.3044425000 -5.5872883125 -4.8738635040
197 1 3.3728796875 -5.0443434375 -4.0390164400
198 1 3.8675275000 -5.7303735000 -5.6330980872
199 1 4.4788665625 -5.7901824688 -4.9221097040
200 1 4.4446009375 -5.2744337500 -4.0404023040
201 1 5.0639621875 -5.8383384375 -5.6729449152
202 1 5.6029134375 -5.9917194375 -4.8386211120
203 1 5.6055471875 -5.4083921875 -4.0868999840
204 1 6.1528700000 -5.9885979063 -5.6811603688
205 1 2.7694956250 -3.8908953125 -6.4084663292
206 1 2.7702884375 -4.4563050000 -5.6215358368
207 1 3.3873250000 -4.5031615625 -4.9246742000
208 1 3.3255796875 -3.9898087500 -4.0372938240
209 1 3.9807653125 -4.5520606250 -5.6840201704
210 1 4.4907721875 -4.7001284375 -4.8197370960
211 1 4.4823603125 -4.1031003125 -4.0857213520
212 1 5.0493421875 -4.7426850000 -5.6932873264
213 1 5.5869362500 -4.8328371875 -4.8383879760
214 1 5.5983581250 -4.2633425000 -4.0370736400
215 1 6.1353878125 -4.8891268750 -5.6687834376
216 1 2.8637731250 -3.2716550000 -5.7004070408
217 1 3.3642259375 -3.4136087500 -4.8018374320
218 1 3.3615787500 -2.8074028125 -4.0740516000
219 1 3.9093718750 -3.4519190625 -5.6774250120
220 1 4.4752250000 -3.5257850000 -4.8472341920
221 1 4.4712206250 -2.9713940625 -4.0349495120
222 1 5.0247784375 -3.6609931250 -5.6520883096
223 1 5.6174662500 -3.7204271875 -4.8928381840
224 1 6.1511634375 -3.2069803125 -6.4652322771
225 1 5.5990971875 -3.2050050000 -4.0053541920
226 1 6.1968912500 -3.7751715625 -5.6814207040
227 1 2.7985878125 -6.1012901563 -3.3068398800
228 1 2.8120790625 -6.6318730688 -2.4041502400
229 1 3.9175821875 -6.3160630625 -3.2110339360
230 1 5.0503096875 -6.4100180625 -3.2033922560
231 1 6.1489596875 -6.5550530313 -3.2408623920
232 1 2.7929709375 -5.0280975000 -3.2023560960
233 1 2.7649000000 -5.5915869688 -2.4062096080
234 1 3.9165475000 -5.1070965625 -3.1958671440
235 1 3.9036071875 -5.7075445313 -2.4915891920
236 1 5.0497184375 -5.2929640625 -3.2755219440
237 1 5.0152915625 -5.8339873750 -2.4256376080
238 1 6.1408837500 -5.4879757813 -3.2532056480
239 1 6.1548050000 -6.0097821250 -2.3770935120
240 1 2.8002675000 -3.8233987500 -3.2030166480
241 1 2.7926484375 -4.4204537500 -2.4807095120
242 1 3.9269615625 -3.9988253125 -3.2743821680
243 1 3.9088075000 -4.5335571875 -2.4072457680
244 1 5.0053075000 -4.2340353125 -3.2348138080
245 1 5.0387400000 -4.7730671875 -2.3924934400
246 1 6.1557590625 -4.3402184375 -3.2308245920
247 1 6.1790059375 -4.9232043750 -2.4652448240
248 1 2.7866015625 -2.7235259375 -3.2630232640
249 1 2.7974859375 -3.2656215625 -2.3993580000
250 1 3.8816234375 -2.9366850000 -3.2229627280
251 1 3.9337609375 -3.4837525000 -2.3843207280
252 1 5.0328140625 -3.0659134375 -3.2378575280
253 1 5.0737850000 -3.6425165625 -2.4805281840
254 1 6.2239409375 -3.1765846875 -3.2780993920
255 1 6.1424156250 -3.7553109375 -2.4820565200
256 1 3.3520918750 -2.2468978125 -4.8648489120
257 1 3.9148409375 -2.3584290625 -5.6380302088
258 1 4.5092218750 -2.4365143750 -4.8899369360
259 1 5.0801409375 -2.4952093750 -5.6816382976
260 1 5.6106265625 -2.6543228125 -4.8237263120
261 1 6.1632571875 -2.6332796875 -5.6833116960
262 1 3.9549653125 -2.3497618750 -2.4891283120
263 1 5.0376650000 -2.5001543750 -2.4469825040
264 1 6.1564443750 -2.6734443750 -2.3981534640
265 1 2.8729240625 -4.9883493750 -6.4753832568
266 1 3.9037818750 -5.1581859375 -6.4095495050
267 1 5.0345206250 -3.0914312500 -6.4369203190
268 1 -6.1858604063 -2.1064893750 -6.4544596583
269 1 -6.7186033861 -2.0863465625 -4.0516964480
270 1 -5.6158053750 -2.0051975000 -4.0118172400
271 1 -4.4425853125 -1.8358850000 -4.0445469440
272 1 -3.3918265625 -2.1957681250 -4.9136520480
273 1 -2.7414246875 -1.5761918750 -6.4204571613
274 1 -3.2703112500 -1.6644359375 -4.0249505680
275 1 -2.7680712500 -2.1448534375 -5.6222002744
276 1 -6.6603113875 -1.5458500000 -4.9001949200
277 1 -6.1076192188 -1.5160456250 -5.6986248456
278 1 -5.5616992813 -1.4439400000 -4.8563653520
279 1 -5.6047946875 -0.9220140625 -4.0139284160
280 1 -4.9928240625 -1.3636643750 -5.6850550352
281 1 -4.4759909375 -1.2632996875 -4.8049459120
282 1 -4.4681434375 -0.6789834375 -4.0238496480
283 1 -3.9458009375 -1.1659181250 -5.7046293928
284 1 -3.3985318750 -1.1230928125 -4.8396184160
285 1 -3.3322312500 -0.5348259375 -4.0575896080
286 1 -2.8624696875 -0.9882743750 -5.6812406712
287 1 -6.6967600688 -0.4431687500 -4.8396313680
288 1 -6.6777324344 0.1369281250 -4.0670445680
289 1 -6.1363714375 -0.3712512500 -5.6623449984
290 1 -5.5715892813 -0.3599637500 -4.8424419520
291 1 -5.0260415625 0.3192212500 -6.4471279197
292 1 -5.5959998438 0.2363387500 -4.1144877440
293 1 -5.0119590625 -0.2408268750 -5.6511777840
294 1 -4.4297390625 -0.1480543750 -4.8751457520
295 1 -4.5197837500 0.4020231250 -4.0517353040
296 1 -3.8565356250 -0.0835275000 -5.6849850944
297 1 -3.3418928125 0.0391300000 -4.8327279520
298 1 -3.3644140625 0.5807284375 -3.9890864800
299 1 -2.7904446875 0.1224962500 -5.7053663616
300 1 -6.2191088125 0.7063959375 -5.6432278464
301 1 -5.6303353438 0.8214478125 -4.8933951200
302 1 -5.5584124688 1.3548225000 -4.0522404320
303 1 -5.0402718750 0.8755875000 -5.6059882560
304 1 -4.4220528125 0.9553525000 -4.8765186640
305 1 -3.9205250000 1.6264346875 -6.4719836625
306 1 -4.4861900000 1.5330037500 -4.1164694000
307 1 -3.8723650000 1.0790043750 -5.6643046360
308 1 -3.2915156250 1.1139956250 -4.8672320800
309 1 -2.7477537500 1.2324203125 -5.7002166464
310 1 -6.1854398125 -2.0723312500 -3.2157355120
311 1 -5.0088281250 -1.9421890625 -3.2552002560
312 1 -3.8691534375 -1.7117090625 -3.2674010400
313 1 -2.7314943750 -1.5898712500 -3.1823841120
314 1 -2.7685415625 -2.1277475000 -2.3644523600
315 1 -6.1954682188 -0.8979878125 -3.2650567280
316 1 -6.1171275938 -1.4777218750 -2.4703867680
317 1 -5.0287962500 -0.7861878125 -3.2497474640
318 1 -5.0681009375 -1.3676687500 -2.4745055040
319 1 -3.8780356250 -0.6334168750 -3.2345547680
320 1 -3.9507996875 -1.1952521875 -2.4084373520
321 1 -2.7791571875 -0.4563778125 -3.2432585120
322 1 -2.8077656250 -1.0242062500 -2.4169856720
323 1 -6.1187427813 0.1534696875 -3.2151526720
324 1 -6.1391274688 -0.4037028125 -2.3588441440
325 1 -5.0840915625 0.3294740625 -3.2137927120
326 1 -4.9730575000 -0.2356400000 -2.4339527920
327 1 -3.9590234375 0.5186068750 -3.2590340480
328 1 -3.8809784375 -0.0419518750 -2.4739097120
329 1 -6.1116948125 1.2636490625 -3.2330652880
330 1 -6.2132540938 0.7196856250 -2.4260132160
331 1 -4.9899350000 1.4204512500 -3.2132228240
332 1 -5.0096746875 0.8786781250 -2.3774561680
333 1 -2.8625100000 1.8197734375 -3.2655359520
334 1 -3.8315150000 1.0653518750 -2.4305464160
335 1 -2.7561790625 0.6737831250 -3.2462633760
336 1 -2.7774506250 1.2534365625 -2.4707235200
337 1 -6.7000941813 1.7938390625 -4.8726071600
338 1 -6.1667670625 1.8756196875 -5.7117568784
339 1 -5.6315971250 1.9382250000 -4.8566243920
340 1 -5.0758678125 1.9854981250 -5.7027824376
341 1 -4.5388381250 2.1210690625 -4.8811036720
342 1 -3.9421459375 2.1739993750 -5.6200049104
343 1 -3.3396353125 2.2355028125 -4.8733324720
344 1 -3.4128696875 1.6749843750 -4.0707358880
345 1 -6.1550549375 1.8626793750 -2.4772901840
346 1 -5.1074996875 2.0084359375 -2.4563079440
347 1 -3.9552071875 1.6435406250 -3.2193361680
348 1 -3.9576796875 2.1732871875 -2.3715112000
349 1 -2.7750856250 0.1134393750 -2.4453505520
350 1 -2.2801018750 -0.9113850000 -4.9075516560
351 1 -2.2553231250 0.1929356250 -4.8347743680
352 1 -2.2723887500 1.9005731250 -4.0160914000
353 1 -6.6705815344 1.2610825000 -4.0325792960
354 1 -6.1754194688 -0.9539281250 -6.4562634834
355 1 -5.0599175000 -0.8003778125 -6.4757276130
356 1 -3.9669650000 0.4887218750 -6.4424242714
357 1 -6.1134940938 1.2704753125 -6.4531468436
358 1 -5.0085325000 1.3981718750 -6.4653315412
359 1 -2.8429450000 1.8115228125 -6.4632062475
360 1 -2.2253978125 1.3425003125 -4.8197370960
361 1 1.6557284375 -1.9701390625 -2.3707988400
362 1 -1.6537800000 0.8109396875 -3.2469109760
363 1 -2.1903931250 -2.0277859375 -4.8671155120
364 1 -1.6865675000 -1.3812271875 -6.4625682579
365 1 -2.2205334375 -1.4546228125 -4.0794525840
366 1 -1.6088046875 -1.9523746875 -5.6569776896
367 1 -1.1266671875 -1.2482631250 -4.0517871120
368 1 -0.5778528125 -1.8123559375 -5.6821822816
369 1 -0.5735662500 -1.2300553125 -3.1787057440
370 1 -1.0876581250 -1.8610803125 -4.7651314640
371 1 -0.0117846875 -1.7715731250 -4.8495396480
372 1 -0.0382028125 -1.2151800000 -4.0101205280
373 1 0.5452400000 -1.8953996875 -5.6302033152
374 1 1.1568209375 -1.9152871875 -4.8931101760
375 1 1.0757121875 -1.4038962500 -4.0057038960
376 1 1.7208734375 -1.9720606250 -5.7079295624
377 1 -2.2059403125 -0.3760618750 -4.0504401040
378 1 -1.6884084375 -0.8405425000 -5.6408278408
379 1 -1.1113081250 -0.7211771875 -4.9040287120
380 1 -1.1074515625 -0.1887700000 -4.0519684400
381 1 -0.5055725000 -0.7145525000 -5.6138086736
382 1 0.0739062500 -0.6885509375 -4.8645380640
383 1 0.6128440625 -0.7290784375 -5.7276101264
384 1 -0.0409171875 -0.1320906250 -4.0578356960
385 1 0.5348125000 -1.3329462500 -6.4331843146
386 1 1.1329425000 -0.8424775000 -4.8203717440
387 1 1.1173953125 -0.2368359375 -4.0733133360
388 1 1.6606062500 -0.8820912500 -5.7123047480
389 1 -2.2076603125 0.7651043750 -4.0490024320
390 1 -1.7246225000 0.3291918750 -5.6770986216
391 1 -1.1450093750 0.3731728125 -4.8708456880
392 1 -1.0745565625 0.9390125000 -4.0454924400
393 1 -0.5731228125 0.4292878125 -5.6601936712
394 1 -0.0051600000 0.4354287500 -4.8430506960
395 1 0.5697365625 0.9478812500 -6.4711478959
396 1 -0.0002015625 1.0156734375 -4.0577968400
397 1 0.5464090625 0.3810740625 -5.6501247864
398 1 1.1337353125 0.3030828125 -4.8897944640
399 1 1.6964843750 0.2257365625 -5.6581485504
400 1 1.0837612500 0.8626337500 -4.0590531840
401 1 -1.6847400000 1.4147268750 -5.6923845720
402 1 -1.1392715625 1.4911190625 -4.8340749600
403 1 -1.1126250000 2.0409009375 -3.9955883840
404 1 -0.6013415625 1.5679681250 -5.6614811000
405 1 -0.0019350000 1.5551621875 -4.8991458080
406 1 0.5714834375 2.0793859375 -6.4479638418
407 1 -0.0331503125 2.0683671875 -3.9923115280
408 1 0.5672909375 1.5058062500 -5.6661878568
409 1 1.1239393750 1.4271162500 -4.8486071040
410 1 1.6820525000 1.3620384375 -5.6874770592
411 1 1.6552715625 0.7898965625 -6.4747565899
412 1 -1.6682521875 -1.4189193750 -3.2120960000
413 1 -0.5441784375 -0.5333209375 -2.4308313600
414 1 0.5252315625 -1.2250834375 -3.2030943600
415 1 0.5249493750 -1.8292334375 -2.4565022240
416 1 1.6761668750 -1.4478637500 -3.2779698720
417 1 -1.6810715625 -0.8638968750 -2.4260002640
418 1 -0.5480350000 -0.0808534375 -3.1548870160
419 1 -0.5347587500 0.8634131250 -3.1604693280
420 1 0.5761462500 -0.1407712500 -3.2787469920
421 1 1.6539009375 -0.3326721875 -3.2053221040
422 1 -1.6856403125 1.3811868750 -2.4162992160
423 1 -1.6809909375 -0.2955175000 -3.2252940880
424 1 -0.5593493750 1.3187696875 -2.4133850160
425 1 -1.5711125000 0.2689784375 -2.4039171040
426 1 0.5656112500 1.5554981250 -2.4613980800
427 1 0.5859018750 0.9521543750 -3.2247889600
428 1 1.6850356250 0.8402200000 -3.2535294480
429 1 1.6740437500 0.2525040625 -2.4808001760
430 1 -1.7017384375 1.9108259375 -3.2376114400
431 1 0.5758909375 2.0899075000 -3.2600054480
432 1 1.1340040625 1.9947431250 -4.0603483840
433 1 1.6529737500 1.3631940625 -2.3953687840
434 1 2.2268221875 -0.9589806250 -4.8852353600
435 1 2.2092996875 1.2413965625 -4.8106188880
436 1 1.7072746875 1.9109871875 -3.2701080080
437 1 -1.5801828125 -1.9812518750 -2.2929184640
438 1 -0.6634765625 -1.7685765625 -2.3313211440
439 1 0.5819512500 -0.7198065625 -2.3993968560
440 1 0.4838037500 0.3888543750 -2.4155480000
441 1 1.6937431250 -0.9285446875 -2.4217261040
442 1 -0.5712012500 2.0031281250 -3.1522318560
443 1 2.2336215625 -2.1218081250 -4.8159421600
444 1 2.2020703125 -0.4384925000 -4.0214923840
445 1 2.2244840625 0.6612459375 -4.0329678560
446 1 -1.6145290625 -0.2629315625 -6.4278566389
447 1 -0.5751653125 -0.1546387500 -6.4433351855
448 1 -0.5169271875 0.9977209375 -6.4500776082
449 1 2.2731681250 0.1168659375 -4.8675947360
450 1 6.6750243750 -1.0153778125 -4.0568642960
451 1 6.6551234375 0.6996637500 -4.8553291920
452 1 2.2593946875 -1.5245784375 -4.0848535680
453 1 2.7794528125 -2.1844940625 -5.6708803664
454 1 3.8931662500 -1.8042934375 -6.4519920433
455 1 3.3398503125 -1.7020475000 -4.0303515520
456 1 4.4676596875 -1.9077621875 -4.0291988240
457 1 5.6256631250 -2.0446365625 -4.1070014880
458 1 2.7835243750 -0.5252315625 -6.4498286707
459 1 2.8012618750 -0.4617528125 -3.2532963120
460 1 2.7994612500 -1.0837343750 -5.6487104280
461 1 3.3823934375 -1.1519700000 -4.8908435760
462 1 3.3465421875 -0.6250856250 -4.0329160480
463 1 3.9622887500 -1.2019709375 -5.7051966904
464 1 4.4538325000 -1.3363325000 -4.8107872640
465 1 4.5234656250 -0.7357434375 -4.0936220720
466 1 5.0132625000 -1.3946109375 -5.6729734096
467 1 5.5764012500 -1.4699953125 -4.8691360240
468 1 6.1484490625 -0.9876562500 -6.4581625056
469 1 5.6087318750 -0.9020996875 -4.0719663280
470 1 6.1542675000 -1.5326140625 -5.6219749096
471 1 2.8273440625 0.0721056250 -5.7047355992
472 1 3.3367865625 -0.0427715625 -4.8022000880
473 1 3.3855378125 0.5725853125 -4.0920160240
474 1 3.8820803125 -0.1156028125 -5.6571913976
475 1 4.4653484375 -0.1653215625 -4.8713378640
476 1 4.9984140625 0.2547481250 -6.4473488808
477 1 4.4599196875 0.3909103125 -4.0546624560
478 1 5.0333381250 -0.2985678125 -5.6408809440
479 1 5.6351903125 -0.3385175000 -4.9145198320
480 1 5.5753800000 0.1455550000 -3.9945392720
481 1 6.2107184375 -0.4011631250 -5.6873229304
482 1 2.7512071875 1.1632709375 -5.6419870448
483 1 3.3492028125 1.1264387500 -4.8929158960
484 1 3.3133246875 1.6770537500 -4.0428761360
485 1 3.9235618750 0.9912440625 -5.6318495144
486 1 4.5272146875 0.9349275000 -4.8912580400
487 1 4.4189487500 1.4597693750 -4.0046806880
488 1 5.0794287500 0.8668934375 -5.7072910288
489 1 5.6002125000 0.7206800000 -4.8041687920
490 1 5.6071596875 1.3077106250 -4.0607110400
491 1 6.1166559375 0.7283528125 -5.7245819488
492 1 2.7643221875 -1.6525168750 -3.2085212480
493 1 2.8216062500 -2.2012237500 -2.3865743760
494 1 3.9135240625 -1.7593315625 -3.2338942160
495 1 5.0811621875 -1.9399181250 -3.2805861760
496 1 6.1360193750 -2.1088140625 -3.2274311680
497 1 2.7595653125 0.0753709375 -2.4087352480
498 1 2.8123881250 -1.0444834375 -2.4923145040
499 1 3.9633637500 -0.6575775000 -3.2943023440
500 1 3.8845662500 -1.1907640625 -2.4416333280
501 1 5.0438462500 -0.8938087500 -3.2124845600
502 1 4.9960221875 -1.4403925000 -2.3753838480
503 1 6.1422678125 -0.9923459375 -3.1984057360
504 1 6.2023871875 -1.5580512500 -2.4124913280
505 1 2.7657600000 1.6943612500 -3.1850651760
506 1 2.8364546875 0.6187296875 -3.2772834160
507 1 3.8967406250 0.3974409375 -3.2007759520
508 1 3.8875090625 -0.1474631250 -2.3756169840
509 1 5.0066646875 0.2920775000 -3.2232476720
510 1 5.0531584375 -0.2995218750 -2.4769275280
511 1 6.1997131250 0.1745800000 -3.2897173360
512 1 6.1589706250 -0.3779565625 -2.4777953120
513 1 2.2659387500 1.8488790625 -4.0997354160
514 1 3.8799571875 1.5842006250 -3.2079643120
515 1 3.9579215625 0.9942540625 -2.4699723040
516 1 5.0477028125 1.4283390625 -3.2884609920
517 1 5.0745912500 0.8705081250 -2.4655427200
518 1 6.1730800000 1.2748693750 -3.2743562640
519 1 6.1298246875 0.7058584375 -2.4351184720
520 1 3.4227059375 2.2241481250 -4.8784355600
521 1 3.9573168750 2.1416687500 -5.7277668456
522 1 4.4702934375 2.0187559375 -4.8071995600
523 1 5.0083578125 1.9638503125 -5.6879498072
524 1 5.5686209375 1.8731068750 -4.8470010560
525 1 6.1326868750 1.8205259375 -5.6266648288
526 1 3.9358303125 2.1769556250 -2.4640273360
527 1 5.0114484375 1.9399046875 -2.3859397280
528 1 6.1835746875 1.7885984375 -2.4201200560
529 1 2.7820731250 1.1210771875 -2.3806553120
530 1 3.9613078125 0.4585546875 -6.4698842987
531 1 2.7863059375 1.7341496875 -6.4563408068
532 1 3.8433400000 1.5506337500 -6.4519810341
533 1 -2.7771146875 2.3644490625 -5.6400118648
534 1 -2.7562328125 2.3479209375 -2.3900196080
535 1 -6.1431412500 6.3342896875 -5.6875729040
536 1 -5.5963384688 6.3876096875 -4.8093884480
537 1 -5.0959837500 6.4969506250 -5.7263770960
538 1 -4.5573684375 6.5938618750 -4.8688510800
539 1 -3.9755381250 6.6443062500 -5.6436397200
540 1 -6.1371615625 6.3069578125 -2.4114551680
541 1 -5.0534271875 6.4967087500 -2.4958115440
542 1 -3.9838021875 6.6632396875 -2.4637682960
543 1 -3.8595993750 2.7291831250 -3.2140647040
544 1 -5.5999706250 2.4553537500 -3.9889181040
545 1 -4.4159253125 2.6605040625 -4.0389128240
546 1 -2.7962093750 2.9188937500 -6.4733034843
547 1 -6.6714225875 2.9330300000 -4.8446956000
548 1 -6.1269732500 2.9804375000 -5.7001013736
549 1 -5.5840498750 3.0082396875 -4.8281040880
550 1 -5.6419856563 3.6119059375 -4.0859156320
551 1 -5.0722934375 3.1439718750 -5.7369640608
552 1 -4.5399265625 3.2154325000 -4.8556659440
553 1 -3.9150156250 3.8565893750 -6.4525063672
554 1 -4.5106731250 3.7627418750 -4.0118301920
555 1 -3.9734015625 3.2686046875 -5.6928637960
556 1 -3.4293843750 3.4151003125 -4.8806633040
557 1 -3.3148700000 3.9492409375 -4.0132937680
558 1 -2.8287684375 3.4585571875 -5.6124357616
559 1 -6.1846698438 4.0641450000 -5.6366430496
560 1 -5.5971984688 4.1634078125 -4.8995732240
561 1 -5.5655625625 4.7271915625 -4.0863171440
562 1 -5.0004162500 4.2540840625 -5.6286205808
563 1 -4.4154415625 4.3089090625 -4.8430118400
564 1 -4.5242584375 4.9040693750 -4.1135681520
565 1 -3.9066709375 4.4577159375 -5.7203803200
566 1 -3.3585150000 4.5007159375 -4.8451618720
567 1 -2.8057231250 5.1615050000 -6.4718546476
568 1 -3.4053312500 5.0553353125 -4.0180342000
569 1 -2.8197518750 4.5805884375 -5.7226184256
570 1 -6.2218675313 5.2282490625 -5.6946058400
571 1 -5.6682371563 5.2890537500 -4.8906881520
572 1 -5.5731534063 5.8206950000 -4.0257017840
573 1 -5.0578615625 5.3476009375 -5.6295842096
574 1 -4.4839325000 5.4802693750 -4.8913487040
575 1 -4.4309753125 6.0289493750 -4.0587552880
576 1 -3.8794734375 5.5481959375 -5.6250963416
577 1 -3.3070762500 5.5988418750 -4.8457058560
578 1 -3.3822993750 6.2045640625 -4.1174667040
579 1 -2.7930515625 5.7494090625 -5.7175490128
580 1 -6.2087149063 2.4217465625 -3.2896266720
581 1 -4.9999190625 2.5597496875 -3.2865829520
582 1 -3.3560559375 2.8381746875 -4.1272066080
583 1 -2.8335925000 2.9110731250 -3.2061510320
584 1 -6.1729147188 3.5069590625 -3.2124845600
585 1 -6.1142613750 2.9450296875 -2.4069737760
586 1 -5.1052153125 3.6904615625 -3.2608084720
587 1 -5.0244693750 3.1106603125 -2.4734304880
588 1 -3.9176896875 3.8655253125 -3.2941598720
589 1 -3.9845009375 3.3086887500 -2.4616830240
590 1 -2.7516103125 4.0184037500 -3.2115390640
591 1 -2.8430256250 3.4682859375 -2.3878954800
592 1 -6.1046508750 4.6545887500 -3.2259157840
593 1 -6.2015003125 4.0892193750 -2.4443791520
594 1 -5.0291456250 4.7835081250 -3.1869432160
595 1 -4.9962103125 4.2132878125 -2.3912500480
596 1 -3.9932353125 4.9798031250 -3.2488667280
597 1 -3.8747568750 4.4022459375 -2.4490677760
598 1 -2.8248312500 5.1776703125 -3.2848473840
599 1 -2.8466671875 4.6168696875 -2.4795179280
600 1 -6.1683432813 5.7879075000 -3.2936417920
601 1 -6.2166416875 5.2303050000 -2.4527072880
602 1 -5.0006043750 5.9168671875 -3.2539050560
603 1 -5.1070562500 5.3663328125 -2.4223218960
604 1 -3.8886915625 6.0668968750 -3.1901035040
605 1 -3.8897934375 5.5000359375 -2.3787772720
606 1 -2.8590565625 6.2876212500 -3.2342180160
607 1 -2.7550906250 5.7164065625 -2.4263888240
608 1 -2.2983365625 2.9936062500 -4.0672129440
609 1 -2.2988471875 4.6918106250 -4.8645380640
610 1 -2.2865921875 6.3248296875 -4.0503623920
611 1 -6.6934660000 6.2855250000 -4.8364192720
612 1 -6.6615014125 4.6116290625 -4.0208318320
613 1 -6.1259425938 4.6334381250 -6.4351846214
614 1 -5.0846290625 4.7972950000 -6.4733391541
615 1 -5.0036950000 5.9031609375 -6.4481030758
616 1 -3.9406543750 6.0942421875 -6.4704698198
617 1 -2.2278031250 4.1173843750 -4.0745308240
618 1 -2.2389159375 5.7648487500 -4.8406027680
619 1 1.0654325000 2.5591584375 -4.8295676640
620 1 -2.1786353125 2.4329803125 -4.8664938160
621 1 -1.6392003125 2.5344737500 -5.6899431200
622 1 -1.1005715625 2.6026825000 -4.8385304480
623 1 -1.1580303125 3.1217462500 -3.9820794480
624 1 -0.5579787500 2.6899321875 -5.6970641296
625 1 -0.0161518750 2.6214546875 -4.8311996160
626 1 -0.0066381250 3.1849025000 -4.0349495120
627 1 0.5115118750 2.6678543750 -5.6914079912
628 1 1.6208715625 2.4512821875 -5.6211628192
629 1 1.6755353125 3.0069765625 -6.4550450887
630 1 1.1307790625 3.7155762500 -4.8854037360
631 1 -2.2213262500 3.5521225000 -4.8786168880
632 1 -1.6687493750 3.6932296875 -5.6675426360
633 1 -1.1014987500 3.6703993750 -4.8557825120