ITEM: TIMESTEP
130000
ITEM: NUMBER OF ATOMS
2304
ITEM: BOX BOUNDS pp pp pp
-6.7187500000 6.7187500000
-6.7187500000 6.7187500000
-6.4760000000 6.4760000000
ITEM: ATOMS id type x y z
1 1 -6.6940122344 -6.3872589688 -4.0613327360
2 1 -6.6753182531 -5.8115534688 -4.8301764080
3 1 -5.5689098438 -6.2304742500 -4.0218679920
4 1 -4.5190984375 -6.5887382906 -4.8593961200
5 1 -3.8912581250 -5.3814177500 -5.7069905424
6 1 -4.4405025000 -6.0377590000 -4.0115322960
7 1 -3.9297565625 -6.5375533750 -5.6411995632
8 1 -3.3549003125 -6.4213042188 -4.8889784880
9 1 -3.3172887500 -5.8894022813 -4.0544034160
10 1 -2.7477806250 -6.3470875625 -5.5921270256
11 1 -6.1286556250 -5.7275207188 -5.6663044248
12 1 -5.5572716250 -5.6748376563 -4.8506405680
13 1 -5.6022536563 -5.1204131250 -4.0695313520
14 1 -5.0278287500 -5.5371865938 -5.6934194368
15 1 -4.4572993750 -5.5151020625 -4.8871781600
16 1 -4.4903556250 -4.9662984375 -4.0422285360
17 1 -3.3454134375 -4.7434912500 -4.0065069200
18 1 -2.8419640625 -5.2532293750 -5.7111157544
19 1 -6.1501905625 -4.0414625000 -6.4506293634
20 1 -6.0819589688 -4.6269075000 -5.6987517752
21 1 -5.0110184375 -4.4710190625 -5.6542292752
22 1 -5.6079860938 -3.9456531250 -4.0742847360
23 1 -4.4340390625 -4.3967768750 -4.8779304320
24 1 -3.8664121875 -4.3014915625 -5.6868100312
25 1 -4.4746740625 -3.8645309375 -4.0608923680
26 1 -3.3306456250 -4.2022690625 -4.8426750880
27 1 -3.3755268750 -5.3077721875 -4.8174316400
28 1 -3.9460696875 -3.6920068750 -3.2269648960
29 1 -2.7878243750 -4.1475650000 -5.7116351296
30 1 -6.1945665625 -3.4837121875 -5.6603452096
31 1 -6.6597912219 -3.0464828125 -4.0122187520
32 1 -5.6341865313 -3.3923506250 -4.8738505520
33 1 -5.5667585000 -4.5223771875 -4.8252935040
34 1 -5.5696126250 -2.8161909375 -4.0631460160
35 1 -5.0422337500 -3.3720196875 -5.6322937680
36 1 -4.4774287500 -3.2784812500 -4.8297489920
37 1 -4.4794846875 -2.6883868750 -4.1038800560
38 1 -3.9248115625 -3.1582021875 -5.6340850296
39 1 -3.3314384375 -3.1091821875 -4.8968403520
40 1 -3.3643603125 -2.5746653125 -4.0532118320
41 1 -2.7508981250 -3.0349803125 -5.6674895328
42 1 -6.1519522188 -6.2484509375 -3.2346195280
43 1 -5.0039771875 -6.1369949375 -3.2247889600
44 1 -5.0693103125 -6.7088043688 -2.4471120240
45 1 -3.8574762500 -6.0033375000 -3.2321975040
46 1 -3.9437046875 -6.5392800938 -2.3843595840
47 1 -2.7668081250 -5.7920381875 -3.2245428720
48 1 -2.7488825000 -6.3317446250 -2.3835177040
49 1 -6.1782816563 -5.1761787500 -3.2652510080
50 1 -6.1177820000 -5.6982269688 -2.3930244720
51 1 -5.0667571875 -4.9719153125 -3.2381813280
52 1 -5.0164068750 -5.5487912188 -2.4786501440
53 1 -3.9245831250 -4.8642809375 -3.2434398400
54 1 -3.9096540625 -5.4260880313 -2.4538859200
55 1 -2.8052931250 -4.1710537500 -2.4527202400
56 1 -6.1447833125 -4.0985450000 -3.2244004000
57 1 -6.1125225625 -4.6298100000 -2.3775856880
58 1 -5.0535212500 -3.8702821875 -3.2674269440
59 1 -4.9970300000 -4.4069490625 -2.4224514160
60 1 -3.8894037500 -4.2830015625 -2.4836496160
61 1 -3.3654487500 -3.6448681250 -4.0212592480
62 1 -6.1121839375 -2.9360668750 -3.2091429440
63 1 -6.1849251563 -3.5266315625 -2.4521114960
64 1 -5.0123218750 -2.8083165625 -3.2259934960
65 1 -5.0328409375 -3.3461390625 -2.3653849040
66 1 -3.9472925000 -2.5871756250 -3.2450588400
67 1 -3.9050718750 -3.1382609375 -2.4133591120
68 1 -2.8343181250 -2.4009990625 -3.2140388000
69 1 -2.8001465625 -3.5717143750 -3.2138315680
70 1 -2.7396240625 -4.7021575000 -3.2926315360
71 1 -2.2615581250 -4.0518631250 -4.8341526720
72 1 -6.1978614375 -2.3719068750 -5.6936150120
73 1 -5.0513712500 -2.2775084375 -5.6415790568
74 1 -6.1914195000 -2.3441853125 -2.4756582320
75 1 -5.0965212500 -2.2430546875 -2.4313105840
76 1 -5.0462381250 -6.1449002188 -6.4550313596
77 1 -2.8108428125 -5.2356800000 -2.3987751600
78 1 -2.7807293750 -2.9901125000 -2.4741687520
79 1 -3.9010137500 -5.9992041250 -6.4431235498
80 1 -2.2993578125 -5.1775762500 -4.8440609520
81 1 -2.2494778125 -3.4944890625 -4.0353769280
82 1 -2.2626331250 -2.3983115625 -4.0230077680
83 1 -6.6588106875 -4.6719903125 -4.8947809840
84 1 -6.7170535425 -4.1335228125 -4.0341205840
85 1 -5.6484356563 -2.2582390625 -4.8792644880
86 1 -5.0562625000 -6.6894463063 -5.6988528008
87 1 -2.7841962500 -5.8434325938 -6.4694094007
88 1 -5.0500140625 -3.8877375000 -6.4683401872
89 1 -3.9515790625 -3.7045037500 -6.4319098378
90 1 -3.9326859375 -2.6094550000 -6.4719394573
91 1 -2.8313081250 -2.4591700000 -6.4311425613
92 1 -2.1416956250 -4.6167353125 -4.0479144640
93 1 -1.6184931250 -4.6286678125 -3.1979653680
94 1 -1.7348081250 -5.1780331250 -5.6325126568
95 1 -2.1497043750 -6.3362408125 -4.8495655520
96 1 -2.2216621875 -5.7575669688 -4.0787402240
97 1 -1.6229006250 -6.2597115625 -5.6923793912
98 1 -1.0828475000 -6.3164890313 -4.7880953600
99 1 -1.0889078125 -5.7103556563 -4.0357654880
100 1 -0.5721956250 -6.4012191875 -5.6890805168
101 1 -0.0225615625 -6.4558144063 -4.8460685120
102 1 0.5974581250 -6.0508686250 -6.4548409652
103 1 0.0344134375 -5.8978168438 -4.0417622640
104 1 1.1529240625 -6.6185952063 -4.8911026160
105 1 0.5461537500 -6.5862492625 -5.6234333048
106 1 1.1352671875 -6.0930341563 -4.0287843600
107 1 -1.1317331250 -5.1895221875 -4.8979671760
108 1 -0.5460059375 -5.2902765625 -5.6358711104
109 1 -0.5500775000 -4.1334959375 -5.6878604384
110 1 -1.0731321875 -4.6391356250 -4.0676921680
111 1 -0.5617412500 -4.7344612500 -6.4336399659
112 1 0.0474209375 -5.3548168750 -4.8756767840
113 1 0.0007256250 -4.8078300000 -4.0408815280
114 1 0.5705025000 -5.4450980625 -5.7352673488
115 1 1.1240603125 -5.5474205938 -4.8773087360
116 1 1.1471996875 -4.9806765625 -4.0622005200
117 1 1.6681312500 -5.0285409375 -6.4739725069
118 1 -1.6761534375 -3.5094853125 -6.4672793277
119 1 -1.7134425000 -4.0668056250 -5.6709995248
120 1 -1.1304431250 -4.0659859375 -4.8953767760
121 1 -1.1064437500 -3.5488168750 -4.0319705520
122 1 -0.0103468750 -4.2558578125 -4.8525445120
123 1 1.0843121875 -3.8706853125 -4.0787920320
124 1 0.0173343750 -3.6773196875 -4.0663969680
125 1 0.6106134375 -4.8459790625 -6.4704606627
126 1 0.5619293750 -4.3064231250 -5.6503825312
127 1 1.1757946875 -3.2742887500 -4.8250603680
128 1 1.1350521875 -4.4356650000 -4.8876444320
129 1 -2.1981331250 -2.9352740625 -4.8617533840
130 1 -1.6419550000 -2.9195656250 -5.7117439264
131 1 -1.1252696875 -2.9886746875 -4.8366912640
132 1 -1.1293412500 -2.4086181250 -4.0527196560
133 1 -0.5493384375 -2.9892659375 -5.6555167040
134 1 0.0179928125 -3.1241650000 -4.8719854640
135 1 0.6118093750 -3.2197190625 -5.6264109696
136 1 1.1132700000 -2.7400137500 -3.9834912160
137 1 1.7218006250 -2.8137990625 -3.2891733520
138 1 1.6911093750 -3.4270596875 -5.7258447688
139 1 -1.6673921875 -5.7457419688 -3.2546821760
140 1 -1.6237606250 -6.2956864375 -2.4117530640
141 1 -0.5266425000 -5.8500304063 -3.2261618720
142 1 -0.5852971875 -6.4223241250 -2.4456484480
143 1 0.5940853125 -5.9902507188 -3.2057883760
144 1 0.5412759375 -6.5629972813 -2.4581341760
145 1 1.7224993750 -6.1764259375 -3.2612876960
146 1 1.6999781250 -6.7004267594 -2.4049273600
147 1 -1.6991181250 -5.2099740625 -2.4197444480
148 1 -0.5318696875 -4.6854278125 -3.1881348000
149 1 -0.5474437500 -5.2768390625 -2.4474617280
150 1 0.5791831250 -4.8731496875 -3.2543324720
151 1 0.5872590625 -5.4155879688 -2.4093310400
152 1 1.6766506250 -5.0690684375 -3.1963852240
153 1 1.6934475000 -5.6397550313 -2.3960681920
154 1 -1.6735600000 -3.4981440625 -3.2395412880
155 1 -1.7009321875 -4.0557062500 -2.4242128880
156 1 -0.5512062500 -3.5837812500 -3.2397485200
157 1 -0.5418537500 -4.1184459375 -2.3883228960
158 1 0.5429287500 -3.7797537500 -3.1968903520
159 1 0.5953484375 -4.3476090625 -2.3839969280
160 1 1.6274693750 -3.9274587500 -3.2360053920
161 1 1.7537818750 -4.4969131250 -2.4418923680
162 1 -1.6470343750 -2.9514393750 -2.4090072400
163 1 -0.0367381250 -2.5665893750 -4.0570067680
164 1 -0.5354440625 -3.0423709375 -2.4087352480
165 1 0.5196684375 -2.6439490625 -3.2527005200
166 1 0.6087993750 -3.2005303125 -2.4384471360
167 1 1.7009321875 -5.6042612188 -5.6890805168
168 1 2.2195928125 -3.4598606250 -4.8019799040
169 1 2.2146075000 -5.1450440625 -4.0774191200
170 1 1.6075415625 -2.2621493750 -5.6834412160
171 1 -1.6945493750 -2.3950865625 -3.2369249840
172 1 -0.5856600000 -2.4695706250 -3.2160334080
173 1 1.7012278125 -3.3541075000 -2.4482258960
174 1 2.1570143750 -2.3667871875 -4.8920999200
175 1 1.6024218750 -2.2794703125 -2.4192781760
176 1 1.7398875000 -4.4956365625 -5.6082742840
177 1 1.7096396875 -6.1817391250 -6.4626696721
178 1 2.2044487500 -4.0294493750 -3.9981787840
179 1 -0.5283356250 -3.5631009375 -6.4482434754
180 1 -1.7218678125 -2.3237468750 -6.4615919362
181 1 1.7314487500 -2.8372206250 -6.4659839982
182 1 6.6870643750 -5.2336778125 -4.0749323360
183 1 6.2171818750 -5.9035264375 -5.6778252288
184 1 6.6663168750 -3.5898415625 -4.8808705360
185 1 2.2886481250 -6.2562876875 -4.0577061760
186 1 3.9148812500 -6.5287773438 -6.4633622673
187 1 3.3629090625 -6.4478056563 -4.0830920960
188 1 4.4437006250 -6.5581288750 -4.0379155200
189 1 5.5833887500 -6.5059564375 -4.0152754240
190 1 2.8393975000 -4.6793271875 -5.7174700056
191 1 2.2436459375 -5.7103744688 -4.8775807280
192 1 3.4357940625 -5.8596462813 -4.8411597040
193 1 2.7589875000 -5.2234250000 -3.2273275520
194 1 3.9738987500 -5.9451611875 -5.6769211792
195 1 4.5308025000 -5.9830992813 -4.8235579360
196 1 4.9976078125 -4.8865200000 -5.6317951160
197 1 4.5554468750 -5.4296516563 -4.0054837120
198 1 5.0400703125 -6.0194840000 -5.7089346376
199 1 5.6292509375 -5.9804238750 -4.9058549440
200 1 5.6422718750 -5.4180645000 -4.0695313520
201 1 2.3190303125 -4.5654846875 -4.8389837680
202 1 3.3689290625 -4.7489871875 -4.7973560400
203 1 3.3333868750 -5.3182668750 -4.0010800320
204 1 3.4300428125 -4.1661625000 -4.0003806240
205 1 3.9024112500 -4.8204881250 -5.7158976328
206 1 4.4234368750 -4.8920965625 -4.8375460960
207 1 4.5208990625 -4.3063693750 -4.0882988000
208 1 5.5884950000 -4.8699784375 -4.9131469200
209 1 5.6207718750 -4.3442093750 -4.0596360240
210 1 6.1957625000 -4.7710112500 -5.6296606264
211 1 2.7823553125 -2.4123134375 -5.5749513784
212 1 2.3188153125 -2.8872484375 -4.0194589200
213 1 2.7446228125 -3.5180181250 -5.6922757752
214 1 3.3048456250 -3.6590850000 -4.8851446960
215 1 3.3801896875 -3.0782356250 -4.1053306800
216 1 4.5351831250 -3.7372375000 -4.8937966320
217 1 4.5397115625 -2.6160796875 -4.8596422080
218 1 5.0842259375 -2.6834418750 -5.6926954200
219 1 5.6233787500 -3.7354100000 -4.8129113920
220 1 6.1265996875 -3.6468031250 -5.7433014744
221 1 5.5704350000 -3.1784121875 -4.0071674720
222 1 2.8245490625 -6.3488787813 -3.2008277600
223 1 3.8971840625 -6.5090201875 -3.2036512960
224 1 5.0247650000 -6.6064571125 -3.2472347760
225 1 6.1818950000 -6.4678906875 -3.2703411440
226 1 2.8574575000 -5.7822476250 -2.4201459600
227 1 3.9436912500 -5.3972672813 -3.3017756480
228 1 3.9752828125 -5.9291893750 -2.4291994080
229 1 5.1035490625 -5.4531471250 -3.1965795040
230 1 5.0518281250 -6.0529326250 -2.4447418080
231 1 6.1756600000 -5.3722318750 -3.1788093600
232 1 6.1878209375 -5.9557432188 -2.3870017920
233 1 2.8202356250 -4.1057743750 -3.2964005680
234 1 2.8636253125 -4.6488778125 -2.4448583760
235 1 3.9927784375 -4.2903384375 -3.2159556960
236 1 3.8954506250 -4.8700859375 -2.4316343840
237 1 5.0696193750 -4.3275737500 -3.2302417520
238 1 5.0107093750 -4.8882937500 -2.4226197920
239 1 6.1641575000 -4.2317375000 -3.2118369600
240 1 6.1896081250 -4.7962200000 -2.4124136160
241 1 2.8653050000 -2.9945871875 -3.1912303280
242 1 2.7405915625 -3.5749125000 -2.4253397120
243 1 6.1636603125 -3.0923853125 -3.2973978720
244 1 3.8980709375 -3.7338378125 -2.4217002000
245 1 4.4184381250 -3.1997643750 -4.0669280000
246 1 5.0759350000 -3.7692993750 -2.3951745040
247 1 4.9903515625 -3.2412056250 -3.2660022240
248 1 6.1512306250 -3.6445993750 -2.4522410160
249 1 6.6988625000 -2.4896596875 -4.8286739760
250 1 3.3973493750 -2.4979103125 -4.8896260880
251 1 3.9125162500 -3.7163287500 -5.5901673880
252 1 3.9693434375 -2.6021046875 -5.6502050888
253 1 5.6318578125 -2.6346906250 -4.8441516160
254 1 6.1638887500 -2.5499940625 -5.7121195344
255 1 2.7813206250 -2.4284787500 -2.3913407120
256 1 3.9111456250 -3.1390537500 -3.1734472320
257 1 5.0789718750 -2.6993921875 -2.4342765920
258 1 6.1833462500 -2.5661190625 -2.4417498960
259 1 3.9662393750 -2.5605156250 -2.3997983680
260 1 2.8514912500 -5.7693812188 -5.6023085928
261 1 2.8602793750 -4.0961665625 -6.4601857375
262 1 6.1697743750 -5.3206856250 -6.4504846895
263 1 2.8757593750 -2.9445728125 -6.4525864106
264 1 5.0939009375 -3.8035246875 -5.6939815536
265 1 5.0704928125 -6.6037186844 -6.4689141551
266 1 2.8547968750 -6.3038913750 -6.4593425623
267 1 3.9037684375 -3.1679040625 -6.4580866069
268 1 5.1057931250 -5.4298612813 -6.4643040461
269 1 4.0155550000 -4.2287543750 -6.4751377452
270 1 -5.6012727188 -1.7354396875 -3.9917804960
271 1 -4.5137771875 -2.0889803125 -4.8387765360
272 1 -4.4592075000 -1.5292143750 -4.0473575280
273 1 -3.9376712500 -2.0610034375 -5.6346458512
274 1 -3.3606784375 -2.0024159375 -4.8361343280
275 1 -3.3520515625 -1.4020418750 -4.0940753920
276 1 -2.8273978125 -1.8664418750 -5.6763046640
277 1 -6.6793750344 -1.3424331250 -4.8488272880
278 1 -6.1249656875 -1.2477390625 -5.6898822456
279 1 -5.5817319063 -1.1762381250 -4.8287128320
280 1 -5.6780545938 -0.6139325000 -4.0356877760
281 1 -5.0573375000 -1.1414887500 -5.7301020912
282 1 -4.5357609375 -0.9647990625 -4.8601473360
283 1 -4.4989287500 -0.4345150000 -3.9885424960
284 1 -3.9607971875 -0.9942540625 -5.6606936184
285 1 -3.4105046875 -0.8362559375 -4.8494748880
286 1 -3.3583268750 -0.2557021875 -4.0675237920
287 1 -2.8350706250 -0.7403659375 -5.6274005024
288 1 -6.6627857688 0.3355209375 -4.0354416880
289 1 -6.1493789375 -0.1433109375 -5.6249758880
290 1 -5.5634851250 -0.0722400000 -4.8828392400
291 1 -5.0963331250 0.6237821875 -6.4632527323
292 1 -5.6021098750 0.5077762500 -4.1094494160
293 1 -5.0141090625 0.0382700000 -5.6988476200
294 1 -4.4564528125 0.0992493750 -4.8649007200
295 1 -4.5495881250 0.6645650000 -4.0615658720
296 1 -3.9171387500 0.1502043750 -5.7197132920
297 1 -3.3895421875 0.3174475000 -4.8529978320
298 1 -3.4089593750 0.8458503125 -3.9990595200
299 1 -2.8143231250 0.3185628125 -5.6506700656
300 1 -6.2304903750 0.9985271875 -5.6862893608
301 1 -5.6713627188 1.0721781250 -4.9076811760
302 1 -5.0122412500 1.7049500000 -6.4571280294
303 1 -5.5383435625 1.5894815625 -4.0345739040
304 1 -5.0571493750 1.1610671875 -5.6075852376
305 1 -4.4487396875 1.2095900000 -4.9000654000
306 1 -3.9462309375 1.8952115625 -6.4626791270
307 1 -4.4852359375 1.7795953125 -4.0897623760
308 1 -3.8811934375 1.3196028125 -5.6813663056
309 1 -3.3262650000 1.3986690625 -4.8473507600
310 1 -2.8255837500 2.0504281250 -6.4319608686
311 1 -2.7920840625 1.4362134375 -5.7179582960
312 1 -6.2038478438 -1.7796221875 -3.2771538960
313 1 -5.0065571875 -1.6854656250 -3.2420539760
314 1 -3.8820265625 -1.5274003125 -3.2368343200
315 1 -3.9419981250 -2.0624143750 -2.3665117280
316 1 -2.8159893750 -1.2932250000 -3.2472218240
317 1 -2.7847875000 -1.8548453125 -2.4039818640
318 1 -6.2263677500 -0.6718346875 -3.2018639200
319 1 -6.1011410000 -1.2458712500 -2.4160660800
320 1 -5.1063843750 -0.5279056250 -3.2724134640
321 1 -5.0402987500 -1.0983275000 -2.4863047760
322 1 -3.9008256250 -0.3993893750 -3.2560939440
323 1 -3.9650703125 -0.9606065625 -2.4452598880
324 1 -2.7875421875 -0.2238015625 -3.2329228160
325 1 -2.8193084375 -0.7727368750 -2.3845150080
326 1 -6.1180305938 0.4497396875 -3.1970198720
327 1 -6.1759542813 -0.1148368750 -2.3799040960
328 1 -5.0892515625 0.5784709375 -3.1897019920
329 1 -4.9758928125 -0.0047703125 -2.4157163760
330 1 -4.0042675000 0.7565312500 -3.2521435840
331 1 -3.9024515625 0.1803715625 -2.4780802560
332 1 -6.1166398125 1.6054453125 -3.2721414720
333 1 -6.2527778125 1.0274446875 -2.4585356880
334 1 -5.0079546875 1.7118300000 -3.1807133040
335 1 -5.0917240625 1.1438134375 -2.3897346640
336 1 -2.8531978125 2.0318709375 -3.2443335280
337 1 -3.8768531250 1.2865868750 -2.4029198000
338 1 -2.8084509375 0.8981087500 -3.2851711840
339 1 -2.8023771875 1.4510215625 -2.4599474560
340 1 -2.2422618750 -1.3131931250 -4.0605167600
341 1 -2.2433637500 -0.7398418750 -4.8619088080
342 1 -2.2672153125 0.4437196875 -4.8113701040
343 1 -2.2786909375 1.5477312500 -4.8310700960
344 1 -6.6918772844 2.0032356250 -4.7907116640
345 1 -6.1864852500 2.1537625000 -5.7028212936
346 1 -5.6407574688 2.1661653125 -4.8152816080
347 1 -3.4161753125 1.9613643750 -4.0551157760
348 1 -6.2196731875 2.1046618750 -2.3498684080
349 1 -3.9525734375 1.8699087500 -3.1849615600
350 1 -2.8319800000 0.3523178125 -2.4520208320
351 1 -2.2457690625 -1.8648428125 -4.8947162240
352 1 -2.2666106250 -0.1757490625 -4.0900991280
353 1 -2.2752106250 2.1155596875 -4.0233704240
354 1 -6.7120611619 1.4320343750 -3.9740621600
355 1 -2.7605193750 -1.2872453125 -6.4409608249
356 1 -5.0734087500 -0.5456834375 -6.4664304925
357 1 -6.1603157188 0.4200428125 -6.4498620869
358 1 -3.9709425000 0.7408765625 -6.4541455723
359 1 -6.1353757188 1.5798468750 -6.4711203470
360 1 -2.2122962500 0.9900750000 -4.0170498480
361 1 1.7274040625 -1.7002200000 -3.1748719520
362 1 -1.6405440625 0.9645975000 -3.2410307680
363 1 -1.6466984375 -1.7934090625 -5.6350952856
364 1 -1.1682428125 -1.2958990625 -4.0393531920
365 1 -0.5214959375 -1.9157037500 -5.6426696152
366 1 -0.5853509375 -1.3439246875 -3.2654582400
367 1 -1.0845271875 -1.8526415625 -4.8505240000
368 1 0.0394525000 -1.9767503125 -4.8101396640
369 1 0.0066381250 -1.4251812500 -3.9958215200
370 1 0.5449578125 -2.1108565625 -5.7271840056
371 1 1.0686843750 -2.1801940625 -4.8123933120
372 1 1.1972678125 -1.6037656250 -4.0296650960
373 1 -1.6806818750 -0.6754628125 -5.6426242832
374 1 -1.1009746875 -0.7181000000 -4.8353313040
375 1 -0.5271531250 -0.2198375000 -3.2661058400
376 1 -0.5836712500 -0.8081312500 -5.7192003928
377 1 -0.0629143750 -0.8698496875 -4.8292438640
378 1 0.4911540625 -0.9569515625 -5.6657151088
379 1 0.0480256250 -0.2939318750 -4.0531082160
380 1 0.6049428125 -1.5236915625 -6.4649881578
381 1 1.0630406250 -1.0841106250 -4.9106083280
382 1 1.0859246875 -0.5102084375 -4.1142546080
383 1 1.6892550000 -1.1382637500 -5.5847482712
384 1 -1.7454371875 0.4281456250 -5.6854215768
385 1 -1.1240065625 -0.1695140625 -4.0047324960
386 1 -0.5657859375 0.9365131250 -6.4512232126
387 1 -1.1867865625 0.3675559375 -4.8573367520
388 1 -0.6246690625 0.3706600000 -5.6566668416
389 1 -0.0424893750 0.2370240625 -4.9185479040
390 1 -0.0479718750 0.7950834375 -4.0930262800
391 1 0.5893015625 0.1544775000 -5.5899161192
392 1 1.1795437500 0.0782465625 -4.8643308320
393 1 1.7213437500 -0.0423550000 -5.7015260936
394 1 1.0491328125 0.6186356250 -4.0320871200
395 1 -1.7086184375 1.5393865625 -5.6408304312
396 1 -1.0840300000 0.9483381250 -4.0699846720
397 1 -1.1309268750 1.5041803125 -4.8908306240
398 1 -0.5265753125 1.4874506250 -5.6124020864
399 1 0.0504981250 1.3826112500 -4.8447085520
400 1 -0.0353137500 1.9366796875 -4.0247951440
401 1 0.5834696875 1.2458846875 -5.7094514224
402 1 1.1050865625 1.2123312500 -4.7971358560
403 1 1.6220675000 1.1029634375 -5.7169519256
404 1 -1.7144234375 -1.2448768750 -3.2024726640
405 1 -0.5861975000 -0.7785956250 -2.4477855280
406 1 0.6080737500 -1.5289859375 -3.2768560000
407 1 0.5509106250 -2.0759056250 -2.4495988080
408 1 1.6694884375 -1.1207815625 -2.3991119120
409 1 -1.6665456250 -0.6748850000 -2.4286554240
410 1 -0.6197643750 0.3082025000 -2.4230083520
411 1 -0.5547000000 0.9093021875 -3.1735767520
412 1 0.5755012500 -0.4035415625 -3.1792756320
413 1 1.6096646875 -0.5546193750 -3.2029259840
414 1 -1.7299034375 1.5291740625 -2.4402604160
415 1 -1.7101234375 -0.1274546875 -3.2604976240
416 1 -0.6126425000 2.0137975000 -3.2520270160
417 1 -1.7198790625 0.4175837500 -2.4086186800
418 1 -0.5468525000 1.4790118750 -2.3990730560
419 1 0.4980340625 0.7382159375 -3.2230404400
420 1 1.6376550000 0.5307678125 -3.3034982640
421 1 1.7333971875 0.0078609375 -2.4026607600
422 1 -1.7019400000 2.1007784375 -3.2184813360
423 1 0.5426331250 1.8180131250 -3.2890826880
424 1 1.1627737500 1.7746503125 -3.9951350640
425 1 1.6518315625 1.0534596875 -2.4425917760
426 1 2.2383515625 -1.7854003125 -4.1103301520
427 1 2.1510078125 0.9987287500 -4.8643049280
428 1 1.7120181250 1.6500846875 -3.1969551120
429 1 1.6594775000 2.2355028125 -5.6088389912
430 1 -1.6675668750 -1.8334259375 -2.4454412160
431 1 -0.5394887500 -1.8945262500 -2.4386155120
432 1 0.4794231250 -0.9913246875 -2.4230472080
433 1 0.5689034375 0.1770793750 -2.4129187440
434 1 0.6079125000 1.2891937500 -2.4084632560
435 1 -1.1738193750 2.0459265625 -4.0732097200
436 1 1.6678893750 2.2301143750 -2.4426824400
437 1 0.5602093750 -0.3752556250 -6.4539155448
438 1 2.1550928125 -0.6595931250 -4.0365944160
439 1 -1.6908003125 -1.2369218750 -6.4640624784
440 1 1.7150684375 -1.6745006250 -6.4432730159
441 1 -0.5422703125 -0.2026509375 -6.4351574222
442 1 1.7375762500 1.6951943750 -6.4606935854
443 1 6.6710200000 -1.9245590625 -4.0533543040
444 1 6.6859490625 -0.1925190625 -4.8969439680
445 1 6.6617078125 0.9045453125 -4.8421440560
446 1 2.2556456250 -0.0814581250 -4.8075622160
447 1 2.2878687500 -1.2005331250 -4.8816347040
448 1 6.6725384375 -0.7717559375 -4.0967694080
449 1 3.3008815625 -1.9639040625 -4.0543127520
450 1 3.8728756250 -2.0564615625 -6.4704120021
451 1 4.4830590625 -2.0895043750 -4.0039942320
452 1 5.0304893750 -2.0984671875 -6.4659240305
453 1 5.5688896875 -2.0477809375 -4.0649981520
454 1 2.7307418750 -0.7729518750 -3.2830470560
455 1 2.8551193750 -1.3293718750 -5.6840745688
456 1 3.3849062500 -1.3678434375 -4.7988325680
457 1 3.3406431250 -0.8029175000 -3.9920136320
458 1 3.9024381250 -1.4615834375 -5.7240962488
459 1 4.4230068750 -1.5272659375 -4.8381677920
460 1 4.5209259375 -0.9739500000 -4.0317244640
461 1 4.9913325000 -1.5295234375 -5.6535208008
462 1 5.5744796875 -1.5090581250 -4.9210087840
463 1 6.1403462500 -0.8700109375 -6.4288324426
464 1 5.6205434375 -0.9759253125 -4.0630035440
465 1 6.1983425000 -1.4381215625 -5.6184403088
466 1 2.2674034375 0.4800815625 -3.9843071920
467 1 2.7700196875 -0.1901809375 -5.7316032280
468 1 3.3002903125 -0.2797150000 -4.8610539760
469 1 3.9173134375 0.2130381250 -6.4628006168
470 1 3.3727721875 0.2890943750 -4.0535615360
471 1 3.8795271875 -0.3498050000 -5.6443935264
472 1 4.4450846875 -0.4240337500 -4.8464052640
473 1 4.4251165625 0.1601481250 -4.0806441680
474 1 6.1147343750 -0.2974121875 -5.6538821616
475 1 5.5467043750 -0.3916359375 -4.8525574640
476 1 5.6012875000 0.1607125000 -4.0233833760
477 1 2.7390193750 0.9561050000 -5.6213842984
478 1 3.3337765625 0.8362156250 -4.9065414000
479 1 3.9024246875 1.3148862500 -6.4253971836
480 1 3.3277162500 1.3628178125 -4.0633143920
481 1 3.9360990625 0.7552412500 -5.6287928424
482 1 4.4983509375 0.7380546875 -4.8421829120
483 1 5.0579556250 0.6981990625 -5.6610510936
484 1 4.4839996875 1.3065550000 -4.0330067120
485 1 4.9925821875 -0.3868253125 -5.6707754552
486 1 5.6061787500 0.7233943750 -4.8047904880
487 1 6.1012700000 1.3969893750 -3.2555499600
488 1 6.1175831250 0.8381640625 -5.7012981384
489 1 2.7626290625 -1.8639290625 -3.1964758880
490 1 3.8723515625 -2.0382403125 -3.2785138560
491 1 5.0444375000 -2.1017459375 -3.1976674720
492 1 6.1225012500 -1.9690909375 -3.2214991520
493 1 2.7758246875 -0.2247153125 -2.4527979520
494 1 2.8502953125 -1.2943134375 -2.4034508320
495 1 3.9244487500 -0.9243790625 -3.2696028800
496 1 3.9055287500 -1.4855693750 -2.4435502240
497 1 5.0677918750 -0.9342018750 -3.2241413600
498 1 4.9875431250 -1.5231137500 -2.4561784240
499 1 6.1660925000 -0.8688418750 -3.1925125760
500 1 6.1686187500 -1.4323300000 -2.3788808880
501 1 2.8028878125 1.5403809375 -3.1949993600
502 1 2.8285131250 0.3596546875 -3.2062416960
503 1 3.9262896875 0.2114390625 -3.1793662960
504 1 3.8890140625 -0.3817459375 -2.4506090640
505 1 5.0066781250 0.1625668750 -3.2892122080
506 1 5.0256653125 -0.3772578125 -2.4125819920
507 1 6.1831715625 0.2615609375 -3.2810524480
508 1 6.0879400000 -0.2768259375 -2.4274120320
509 1 2.2543959375 1.5652403125 -4.0678734960
510 1 3.8982456250 1.3243193750 -3.2596946000
511 1 3.9336937500 0.8020978125 -2.4057692400
512 1 5.5755009375 1.3384959375 -4.0794137280
513 1 5.0492750000 1.8102865625 -2.4426824400
514 1 6.1527087500 0.8033071875 -2.4710861760
515 1 2.2544093750 2.1251675000 -4.8787982160
516 1 2.8320068750 2.0643628125 -5.6464632560
517 1 3.3772603125 1.9598728125 -4.7973948960
518 1 3.8977887500 1.9071037500 -5.6991312688
519 1 4.4438484375 1.8505050000 -4.8721149840
520 1 5.0478371875 1.7920384375 -5.6355239968
521 1 5.6120509375 1.8960312500 -4.8716098560
522 1 6.1943112500 1.9293025000 -5.6465072928
523 1 3.9375503125 1.8609862500 -2.3944232880
524 1 5.0338084375 1.2290206250 -3.2138315680
525 1 6.2711737500 1.9204068750 -2.3337561200
526 1 2.7695493750 0.9476259375 -2.4537175440
527 1 5.0521103125 0.6798971875 -2.3918069840
528 1 2.8351512500 2.0866825000 -2.3836731280
529 1 2.7332950000 -1.9027903125 -6.4722005697
530 1 2.8443693750 0.4103946875 -6.4605213238
531 1 5.0741209375 -0.9750787500 -6.4542564414
532 1 2.7938712500 1.4900440625 -6.4579561802
533 1 -5.1172418750 2.2813112500 -5.6916864592
534 1 -4.5491178125 2.3438493750 -4.8825413440
535 1 -5.1368203125 2.2964418750 -2.4462701440
536 1 -6.1756183438 6.6468996875 -5.6867530424
537 1 -5.6027992188 6.6453678125 -4.8658850720
538 1 -6.1568165938 6.6015884375 -2.4662939360
539 1 -6.6956697500 6.4674150000 -4.8124580720
540 1 -3.8662106250 2.9847509375 -3.2007759520
541 1 -5.6234513125 2.7489631250 -4.0204691760
542 1 -4.4306125000 2.8814837500 -4.0092009360
543 1 -3.9784943750 2.4380731250 -5.6337910192
544 1 -3.3745325000 2.5021162500 -4.8946514640
545 1 -2.8048631250 2.6042278125 -5.6357843320
546 1 -6.7122691744 3.7479203125 -4.0719663280
547 1 -6.1193259688 3.2213987500 -5.6171399280
548 1 -5.5271151875 3.2921203125 -4.8293604320
549 1 -5.6478860625 3.8850231250 -4.0891406800
550 1 -5.0328678125 3.4350415625 -5.7030777432
551 1 -4.4720537500 3.4427815625 -4.8294122400
552 1 -4.5164646875 4.0074387500 -4.0162727280
553 1 -3.9566450000 3.5724803125 -5.7099656168
554 1 -3.3996606250 3.6565050000 -4.8802229360
555 1 -3.3137278125 4.1643887500 -3.9919359200
556 1 -2.8155190625 3.7257753125 -5.6287863664
557 1 -6.1402736875 4.8780812500 -6.4312766145
558 1 -6.1336194375 4.3144318750 -5.6534184800
559 1 -5.5840176250 4.4598525000 -4.8625434560
560 1 -5.5721442500 5.0298443750 -4.0718756640
561 1 -4.9913459375 4.5158196875 -5.6198650288
562 1 -4.4135334375 4.5541703125 -4.8379994160
563 1 -3.8990384375 5.8069350000 -5.6077069864
564 1 -4.5057550000 5.1416175000 -4.0945934720
565 1 -3.8867565625 4.7303628125 -5.6981585736
566 1 -3.3515812500 4.7368531250 -4.8075233600
567 1 -3.3799746875 5.3099759375 -4.0107163200
568 1 -2.8310528125 4.8343959375 -5.7316109992
569 1 -6.7037295625 5.3562412500 -4.8629449680
570 1 -6.1211360000 6.0750803125 -6.4696770408
571 1 -6.1717483438 5.4906028125 -5.7324399272
572 1 -5.6441141563 5.5862106250 -4.8807021600
573 1 -5.5383919375 6.1304025000 -3.9977254640
574 1 -5.0443568750 5.5902956250 -5.6512477248
575 1 -4.4892403125 5.7234881250 -4.8508866560
576 1 -4.4177796875 6.2952940625 -4.0648815840
577 1 -3.3084200000 5.8414693750 -4.8517673920
578 1 -2.8191068750 6.5349384375 -6.4503569828
579 1 -3.3607590625 6.4362265625 -4.0979350880
580 1 -2.7682459375 5.9714503125 -5.6605977736
581 1 -6.2005879063 2.6595500000 -3.2631916400
582 1 -5.0244559375 2.8322353125 -3.2890826880
583 1 -3.9814237500 2.4308437500 -2.3810050160
584 1 -3.3457359375 3.0704015625 -4.0961736160
585 1 -2.8211359375 3.1376293750 -3.1671137040
586 1 -6.1763533750 3.7531340625 -3.1985870640
587 1 -6.0928393125 3.2155668750 -2.4111313680
588 1 -5.1001628125 3.9541993750 -3.2529466080
589 1 -5.0217684375 3.3813184375 -2.4541061040
590 1 -3.9208609375 4.1140518750 -3.2909348240
591 1 -3.9827137500 3.5733806250 -2.4486403600
592 1 -2.7341146875 4.2760409375 -3.2427404320
593 1 -2.8401231250 3.7361356250 -2.4157163760
594 1 -6.0954112500 4.8713221875 -3.2125363680
595 1 -6.1649100000 4.3370471875 -2.3844891040
596 1 -5.0308387500 5.0527418750 -3.2031332160
597 1 -4.9663118750 4.4935671875 -2.3960422880
598 1 -3.9669246875 5.2371446875 -3.2413416160
599 1 -3.8619912500 4.6717350000 -2.4599086000
600 1 -2.7987356250 5.4085131250 -3.2783972880
601 1 -2.8269006250 4.8472825000 -2.4497024240
602 1 -6.1193501563 6.0287746875 -3.2370286000
603 1 -6.1803671563 5.4600728125 -2.4515545600
604 1 -4.9570668750 6.1524937500 -3.2221208480
605 1 -5.0525537500 5.6186890625 -2.3810050160
606 1 -3.8820400000 6.3333087500 -3.1912562320
607 1 -3.8601906250 5.7712584375 -2.3774820720
608 1 -2.8240250000 6.5392115625 -3.1857127760
609 1 -2.7295862500 5.9477465625 -2.4397164320
610 1 -2.3048134375 3.2034193750 -4.0753856560
611 1 -2.3002984375 6.5425171875 -4.0461400400
612 1 -2.7649671875 2.5566590625 -2.3920012640
613 1 -2.3068425000 4.8904571875 -4.8428952720
614 1 -6.7063085950 3.1827928125 -4.8689158400
615 1 -6.6816268906 4.8203671875 -3.9997330240
616 1 -6.6929407281 5.8997209375 -4.0102500480
617 1 -3.8700268750 2.9942512500 -6.4602261478
618 1 -2.8000256250 3.1604731250 -6.4615971170
619 1 -4.9826653125 6.1484087500 -6.4438848684
620 1 1.7054606250 6.6858012500 -5.6974811840
621 1 -2.1990065625 2.6464484375 -4.8865046560
622 1 -2.1829353125 4.3320618750 -4.0558669920
623 1 1.0568593750 2.2980543750 -4.8981355520
624 1 -1.6384075000 2.6514875000 -5.6641077656
625 1 -1.0885315625 2.6598725000 -4.8096215840
626 1 -0.5346915625 4.2831896875 -6.4442388466
627 1 -1.1535287500 3.2039703125 -3.9873897680
628 1 -0.5682718750 2.5703384375 -5.7117633544
629 1 -0.0382834375 2.5106625000 -4.8063058720
630 1 0.0641775000 3.0784775000 -4.0193294000
631 1 0.4899715625 2.3963362500 -5.6918107984
632 1 1.6431912500 2.7780821875 -6.4428270786
633 1 1.1623840625 3.4201931250 -4.8841085360
634 1 -2.2178056250 3.7785712500 -4.8675817840