ITEM: TIMESTEP
162000
ITEM: NUMBER OF ATOMS
2304
ITEM: BOX BOUNDS pp pp pp
-6.7187500000 6.7187500000
-6.7187500000 6.7187500000
-6.4760000000 6.4760000000
ITEM: ATOMS id type x y z
1 1 -5.6203217188 -6.5286214688 -4.0963031360
2 1 -4.4464553125 -5.8217202813 -4.8061374960
3 1 -4.4680762500 -6.4034457813 -4.0307789680
4 1 -3.3356040625 -6.2025484375 -4.0433165040
5 1 -6.7026112938 -5.4791446563 -4.0545329360
6 1 -6.1057339375 -6.0703355313 -5.6316293304
7 1 -5.5384430000 -5.9421135625 -4.8443718000
8 1 -6.1470354375 -5.5166070625 -6.4520157454
9 1 -5.5495195313 -4.8510181250 -4.8958689520
10 1 -4.9959012500 -5.9151982500 -5.6873941664
11 1 -4.4777512500 -5.2267575000 -4.0747898640
12 1 -3.9190334375 -5.1643268750 -3.2639817120
13 1 -3.3121959375 -5.6506609063 -4.8800027520
14 1 -2.7613525000 -5.5283474063 -5.7333789472
15 1 -6.6181873781 -4.9042306250 -4.8447344560
16 1 -4.4538996875 -4.6498856250 -4.8495785040
17 1 -4.9803675000 -4.2276390625 -6.4567123997
18 1 -5.5458080938 -4.3313631250 -3.9839186320
19 1 -3.8836525000 -4.6396865625 -5.6289521520
20 1 -3.9387193750 -5.7126225625 -5.6364928064
21 1 -4.4441709375 -4.0869215625 -4.0616306320
22 1 -3.2903868750 -4.5088456250 -4.8392946160
23 1 -3.3609471875 -5.0956612500 -4.0753727040
24 1 -3.8813950000 -4.0987196875 -3.1990533360
25 1 -2.7724250000 -4.5989978125 -5.8120053584
26 1 -6.6956602094 -3.7801703125 -4.8189599760
27 1 -6.1648522188 -3.7610218750 -5.6819841160
28 1 -6.7150419622 -3.1902237500 -4.0394827120
29 1 -5.6047624375 -3.8087115625 -4.8581527280
30 1 -6.1136217500 -4.9229625000 -5.7268679768
31 1 -5.5832973750 -3.2482737500 -4.0609571280
32 1 -5.0568537500 -3.6437259375 -5.6914857032
33 1 -4.4967384375 -3.5447856250 -4.9052591520
34 1 -3.8966600000 -2.9935928125 -6.4354548002
35 1 -4.4364981250 -3.0429756250 -3.9899542640
36 1 -3.8866221875 -3.5617303125 -5.6694608272
37 1 -3.3224084375 -3.3920281250 -4.8979542240
38 1 -3.3128409375 -2.8325309375 -4.0622393760
39 1 -2.7579796875 -3.4234046875 -5.6862194200
40 1 -6.6780402875 -6.5274430000 -4.0425134800
41 1 -6.1268617188 -6.5819266875 -3.1911526160
42 1 -5.0609925000 -6.4551747813 -3.2650437760
43 1 -3.8889334375 -6.2747776875 -3.2460043360
44 1 -2.7866956250 -4.9955787500 -3.2844070160
45 1 -2.7601968750 -6.1078113750 -3.2259805440
46 1 -6.1408420938 -5.4661304375 -3.1946755600
47 1 -6.1518783125 -6.0142299375 -2.3913536640
48 1 -5.6099197500 -5.3893364688 -4.0249764720
49 1 -4.9795343750 -5.9185750938 -2.3657864160
50 1 -5.0114081250 -5.4056643750 -3.2306044080
51 1 -2.7404571875 -4.4348184375 -2.4642475200
52 1 -6.1712068125 -4.3162190625 -3.2714550160
53 1 -6.1302170625 -4.8574278125 -2.4392372080
54 1 -4.9711493750 -4.2417887500 -3.2023690480
55 1 -5.0358778125 -4.8292493750 -2.4509458160
56 1 -3.8599890625 -4.6370662500 -2.3744642560
57 1 -3.3752984375 -3.9357765625 -4.0794137280
58 1 -6.1493735625 -3.1809384375 -3.2507836240
59 1 -6.1058011250 -3.7658056250 -2.4520078800
60 1 -5.0411453125 -3.0556203125 -3.2609898000
61 1 -5.0417903125 -3.6408100000 -2.4819917600
62 1 -3.8662375000 -2.9240268750 -3.2213566800
63 1 -3.9273243750 -3.4908609375 -2.4493138640
64 1 -2.7599146875 -2.7829196875 -3.2075887040
65 1 -2.8151159375 -3.8673528125 -3.2828527760
66 1 -2.8167418750 -5.5342048125 -2.4455577840
67 1 -6.1239444375 -2.6739415625 -5.6048109192
68 1 -5.5557249688 -2.6606384375 -4.8182087600
69 1 -5.0226284375 -2.4868781250 -5.6617505016
70 1 -4.4198221875 -2.5108775000 -4.8590464160
71 1 -3.9113068750 -2.3660212500 -5.7467777912
72 1 -3.3644409375 -2.2990218750 -4.9145457360
73 1 -2.7735806250 -2.2879493750 -5.7019017016
74 1 -6.1778812188 -2.6580315625 -2.3985161200
75 1 -4.9929584375 -2.5490668750 -2.3735964720
76 1 -2.7850428125 -6.6740364500 -2.4322042720
77 1 -3.8958806250 -5.7136397813 -2.4327094000
78 1 -2.7464637500 -3.3560828125 -2.4029845600
79 1 -4.9886450000 -4.8079778125 -5.6943170104
80 1 -2.2454331250 -4.3588159375 -4.9131210160
81 1 -2.2395878125 -6.0261866250 -4.1055508640
82 1 -3.9076787500 -2.3282081250 -2.4817456720
83 1 -2.8062606250 -6.6381825125 -5.6827482840
84 1 -6.1423350000 -4.3187990625 -6.4670867704
85 1 -5.0351118750 -3.0719603125 -6.4511225755
86 1 -2.2099984375 -5.4361285313 -4.8475968480
87 1 -2.2282734375 -2.6843018750 -4.1061466560
88 1 -1.6411890625 -4.8269246875 -3.2311742960
89 1 -0.5020518750 -6.3337951875 -5.6470253728
90 1 -2.2091787500 -4.8850956250 -4.0413866560
91 1 -2.2183162500 -6.5835741250 -4.9000913040
92 1 -1.6730896875 -6.3931499688 -5.7441731440
93 1 -1.1179193750 -6.3792502188 -4.8664031520
94 1 -1.0952100000 -5.8344496250 -4.0370606880
95 1 -0.7130743750 -5.7825768438 -6.4663255036
96 1 0.0197531250 -6.2931655625 -4.8338288720
97 1 -0.0531184375 -5.1670546875 -4.8271197360
98 1 0.0344537500 -5.7394800938 -4.0320612160
99 1 1.1116978125 -6.3484649063 -4.8073808880
100 1 0.5672640625 -6.2807210938 -5.6869227136
101 1 1.1656628125 -5.7565121250 -4.0596230720
102 1 1.6201459375 -6.4281250938 -5.6900583928
103 1 -1.6767715625 -5.4586753125 -5.7989186576
104 1 -1.1561759375 -5.2833562500 -4.8724387840
105 1 -0.5537728125 -4.1071450000 -5.6883448432
106 1 -1.0894587500 -4.7295028125 -4.0437698240
107 1 -0.5616740625 -5.2096246875 -5.6766064456
108 1 0.0506325000 -4.6026931250 -4.0382911280
109 1 0.5001168750 -5.2043975000 -5.6779612248
110 1 1.0577596875 -5.2035106250 -4.8698742880
111 1 1.6475181250 -4.7497934375 -6.4249424389
112 1 1.1607850000 -4.6444434375 -4.0638065680
113 1 -2.2080096875 -3.8150406250 -4.0285771280
114 1 -1.6240025000 -4.3017065625 -5.6594035992
115 1 -1.1176103125 -4.1633943750 -4.8391650960
116 1 -1.0562815625 -3.6058456250 -4.0616176800
117 1 -0.0043806250 -4.0599256250 -4.8646157760
118 1 1.1173415625 -3.5705587500 -4.0637418080
119 1 0.0671471875 -3.4792240625 -4.0852939360
120 1 0.6054131250 -4.6041578125 -6.4368055642
121 1 0.5721956250 -4.0560018750 -5.6337728864
122 1 1.6886906250 -3.6247253125 -6.4451228206
123 1 1.2532350000 -2.9961728125 -4.8396313680
124 1 1.1812637500 -4.1037318750 -4.9168770960
125 1 -2.2010625000 -3.2684837500 -4.8616238640
126 1 -1.6626218750 -3.1761009375 -5.7064646912
127 1 -1.1071693750 -3.0499228125 -4.8725683040
128 1 -1.1096418750 -2.4979371875 -4.0525901360
129 1 -0.5327296875 -2.9876131250 -5.6489163648
130 1 0.0564643750 -2.9181815625 -4.8974879520
131 1 0.6605203125 -2.9129678125 -5.6204880200
132 1 1.1258475000 -2.4406396875 -4.0386019760
133 1 1.7066162500 -2.5028553125 -3.2661187920
134 1 1.7824575000 -3.0558084375 -5.6724074072
135 1 -1.6933803125 -5.9429332500 -3.2703800000
136 1 -0.5320040625 -5.7691568125 -3.2522472000
137 1 -0.5526843750 -6.3077492813 -2.4259355040
138 1 0.6129112500 -5.7113365938 -3.2351376080
139 1 0.5699918750 -6.2747602188 -2.4463608080
140 1 1.7159553125 -5.8588951250 -3.2333761360
141 1 1.6683059375 -6.4144161563 -2.4039430080
142 1 -1.6421968750 -5.3956655313 -2.4459852000
143 1 -0.5173437500 -4.6177296875 -3.2415488480
144 1 -0.5416118750 -5.2072328125 -2.4584709280
145 1 0.6090412500 -4.6224462500 -3.2316017120
146 1 0.5452937500 -5.1640312500 -2.3850589920
147 1 1.6905181250 -4.7432090625 -3.1739394080
148 1 1.7016175000 -5.3219353125 -2.3924934400
149 1 -1.6338656250 -3.6724956250 -3.2610286560
150 1 -1.6937834375 -4.2424875000 -2.4747256880
151 1 -0.5013128125 -3.5202353125 -3.2375855360
152 1 -0.5442456250 -4.0826753125 -2.4103672000
153 1 0.5724106250 -3.4865206250 -3.1922276320
154 1 0.6029809375 -4.0714550000 -2.4112479360
155 1 1.6717056250 -3.5991000000 -3.2297495760
156 1 1.7350768750 -4.1618759375 -2.4277358320
157 1 -1.6407321875 -3.1309643750 -2.4353775120
158 1 -0.0010481250 -2.3934337500 -4.0577968400
159 1 -0.5647109375 -2.9691500000 -2.4207288000
160 1 0.5635150000 -2.3665721875 -3.2493459520
161 1 0.5992990625 -2.9130618750 -2.4234357680
162 1 2.1961040625 -6.4725118438 -4.8404214400
163 1 1.6325756250 -5.3234403125 -5.6454789040
164 1 2.2381096875 -5.3671121875 -4.9227443520
165 1 -1.6960275000 -2.5729990625 -3.2623109040
166 1 -0.5582206250 -2.4102575000 -3.2424425360
167 1 1.7266515625 -3.0390921875 -2.4200682480
168 1 -1.6468731250 -6.5004269063 -2.4350019040
169 1 1.7899421875 -4.1774231250 -5.6421424688
170 1 0.6080603125 -3.4766037500 -6.4196120433
171 1 1.7242193750 -5.8732248750 -6.4734102865
172 1 2.2240137500 -3.7143400000 -3.9994610320
173 1 2.2088428125 -4.8424718750 -4.0655162320
174 1 -1.6372921875 -3.7369150000 -6.4706098957
175 1 -1.6351556250 -2.5706743750 -6.4632791932
176 1 -0.5541893750 -2.4037806250 -6.4388462814
177 1 6.7169762500 -5.9994782500 -4.9188198960
178 1 6.7080000000 -4.3465340625 -4.0422673920
179 1 2.3306671875 -4.2622003125 -4.8345541840
180 1 2.3829793750 -3.1663721875 -4.7948563040
181 1 6.1295290625 -5.9458209688 -5.6471885680
182 1 6.2256071875 -4.8018368750 -5.6145637752
183 1 2.2916715625 -5.9131087188 -4.0587552880
184 1 2.7367081250 -6.6017212000 -5.6506946744
185 1 3.3418525000 -6.6438778625 -4.9209181200
186 1 3.3349590625 -6.0980853125 -4.0827812480
187 1 4.4105637500 -6.2786396250 -4.0523829040
188 1 5.6235937500 -6.4259952500 -3.9847734640
189 1 2.8772778125 -4.3399362500 -5.7088608112
190 1 2.8101440625 -6.0078592188 -6.3958298399
191 1 2.8532112500 -5.4295938750 -5.6246676304
192 1 3.3247331250 -4.9724125000 -4.0808643520
193 1 3.9944984375 -5.6093352188 -5.6902708056
194 1 4.5227265625 -5.7054926250 -4.7817747840
195 1 5.0078740625 -4.6642637500 -5.5916983144
196 1 4.5319446875 -5.1038178125 -4.0044605040
197 1 5.0212040625 -5.7929573125 -5.7209100568
198 1 5.5617946875 -5.8827090625 -4.8325595760
199 1 5.6822081250 -5.3142893750 -4.0389128240
200 1 2.8474196875 -3.7886493750 -3.2823346960
201 1 3.3945140625 -4.3039506250 -4.7955557120
202 1 3.4359418750 -5.5105682500 -4.8731511440
203 1 3.4346921875 -3.7793640625 -4.0871460720
204 1 3.8970496875 -4.5219337500 -5.7346275200
205 1 4.4376403125 -4.5962296875 -4.8475579920
206 1 4.5826846875 -4.0183903125 -4.0370218320
207 1 5.0470309375 -4.1136487500 -6.4124113789
208 1 5.6311187500 -4.7957900000 -4.9004410080
209 1 4.9689321875 -3.0113303125 -6.4585107849
210 1 5.5961543750 -4.2233659375 -4.0996447520
211 1 6.1988396875 -5.3824658750 -6.4307477843
212 1 2.8729375000 -3.2403725000 -5.5677241624
213 1 3.8074081250 -3.3612831250 -5.4919433056
214 1 3.9136853125 -2.8431196875 -6.4293092057
215 1 4.4477318750 -2.9361071875 -4.0696867760
216 1 4.5611578125 -2.3357331250 -4.8085465680
217 1 5.0679128125 -2.4333968750 -5.7060385704
218 1 5.6382271875 -3.6243893750 -4.8356810080
219 1 6.1906025000 -3.7139906250 -5.6791178384
220 1 5.5678818750 -3.0584287500 -4.0267508960
221 1 2.8074834375 -6.0173716250 -3.1848968000
222 1 2.7970962500 -6.6016310344 -2.3950449840
223 1 3.8875762500 -6.1404295625 -3.2143237440
224 1 5.0104271875 -6.3628645313 -3.2927610560
225 1 6.2131909375 -6.5572285625 -3.2258121680
226 1 2.8631415625 -5.4331198750 -2.4531217520
227 1 3.8843646875 -5.0596890625 -3.3242862240
228 1 3.9956137500 -5.5789463125 -2.4244978320
229 1 5.0875853125 -5.2652425000 -3.2552002560
230 1 5.0518281250 -5.8152205625 -2.4328907280
231 1 6.2135403125 -5.3714390625 -3.1790554480
232 1 6.1190075000 -5.9717378750 -2.4685605360
233 1 2.8522034375 -4.3148350000 -2.4121675280
234 1 2.7795603125 -4.8456162500 -3.2543065680
235 1 3.9726087500 -3.9784137500 -3.2477269520
236 1 3.9218821875 -4.5277253125 -2.4415685680
237 1 5.0899234375 -4.1051025000 -3.1584876720
238 1 5.0018137500 -4.6992415625 -2.4512566640
239 1 6.1348906250 -4.2664734375 -3.2356038800
240 1 6.1761571875 -4.8038525000 -2.3748269120
241 1 3.3808212500 -2.8489918750 -4.1725645120
242 1 2.8749800000 -2.6545781250 -3.2296977680
243 1 6.1346890625 -3.2019278125 -3.2627124160
244 1 3.9026262500 -3.3988678125 -2.4633149760
245 1 3.9115890625 -2.7911434375 -3.1957376240
246 1 5.0782731250 -3.5260268750 -2.3868981760
247 1 4.9825981250 -2.9919668750 -3.2345159120
248 1 6.2597384375 -3.7251034375 -2.3814194800
249 1 6.7057425000 -2.6500496875 -4.8700685680
250 1 2.2863503125 -2.5653396875 -4.0011447920
251 1 4.4378687500 -3.4749106250 -4.9241043120
252 1 4.0033134375 -2.2496659375 -5.6357480664
253 1 5.6101025000 -2.5022103125 -4.8315622720
254 1 6.1584331250 -2.5910725000 -5.6793988968
255 1 2.7741181250 -3.2369459375 -2.4598826960
256 1 5.1145140625 -2.4304137500 -2.4349371440
257 1 6.1628406250 -2.6264265625 -2.4881957680
258 1 5.1445200000 -5.1919543750 -6.4559449937
259 1 2.8658290625 -2.6713346875 -6.4166549722
260 1 4.0239265625 -3.8896456250 -6.4267553303
261 1 5.0836346875 -3.5383221875 -5.6048277568
262 1 3.3994053125 -2.2991428125 -4.8805855920
263 1 3.9923753125 -2.2421275000 -2.3703455200
264 1 3.9539575000 -6.7169298638 -2.4388616000
265 1 3.8467262500 -6.1846080313 -6.4627117661
266 1 6.2334009375 -6.4900558438 -6.4730459337
267 1 -6.6497106781 -2.0957259375 -4.0438604880
268 1 -5.5620916563 -2.0574156250 -4.1121563840
269 1 -3.9197590625 -1.7508121875 -6.4550154286
270 1 -4.4744321875 -1.9363840625 -4.0768880880
271 1 -2.7752603125 -1.6808028125 -6.4173643532
272 1 -3.3213200000 -1.7672462500 -3.9975052800
273 1 -6.0960885000 -1.0035528125 -6.4406546396
274 1 -6.1757150938 -1.5731415625 -5.6709218128
275 1 -5.6330497188 -1.4639753125 -4.8631392480
276 1 -5.5388300000 -0.9305065625 -4.0160914000
277 1 -5.0273315625 -1.4428246875 -5.5933691224
278 1 -4.4388631250 -1.3635300000 -4.8490863280
279 1 -4.4461059375 -0.7676575000 -4.1016911680
280 1 -3.8896187500 -1.1970259375 -5.6402255728
281 1 -3.2945525000 -1.2474165625 -4.8701721840
282 1 -2.8353528125 -0.4537575000 -6.4615833878
283 1 -3.3768034375 -0.6511946875 -4.1018595440
284 1 -2.7757440625 -1.0501943750 -5.7312962656
285 1 -6.1573312500 -0.4117653125 -5.6957650440
286 1 -5.5959205625 -0.3799184375 -4.8577900720
287 1 -5.0021900000 0.2477068750 -6.4701804592
288 1 -5.6095824688 0.1657246875 -4.0034372960
289 1 -5.0460903125 -0.3298771875 -5.7024728848
290 1 -4.5222428125 -0.1855181250 -4.8672709360
291 1 -3.8687771875 0.3903996875 -6.4695270696
292 1 -4.4096634375 0.3458275000 -4.0054578080
293 1 -3.9134165625 -0.1388093750 -5.6060892816
294 1 -3.3304575000 -0.0668918750 -4.8555493760
295 1 -3.3065656250 0.5304318750 -4.0996188480
296 1 -2.7695090625 0.0983356250 -5.6285001272
297 1 -6.0941037813 0.6874625000 -5.6496144776
298 1 -5.5481341250 0.7144987500 -4.8241537280
299 1 -5.6231167188 1.3052784375 -4.0863560000
300 1 -5.0241334375 0.8387284375 -5.7174207880
301 1 -4.4856256250 0.8883396875 -4.8375201920
302 1 -3.8771084375 1.5564253125 -6.4729194057
303 1 -4.5067762500 1.4549184375 -4.0082165840
304 1 -3.9431671875 0.9744875000 -5.7096677208
305 1 -3.4267103125 1.1107034375 -4.8500836320
306 1 -2.8356350000 1.1477371875 -5.6175867720
307 1 -6.0805305625 -2.0998109375 -3.2211883040
308 1 -5.0389415625 -1.9904834375 -3.2163701600
309 1 -3.9402512500 -1.7616965625 -3.2732035360
310 1 -2.7507637500 -1.6332609375 -3.2451495040
311 1 -2.8209881250 -2.1982943750 -2.4527202400
312 1 -6.1384233438 -1.0017387500 -3.2542418080
313 1 -6.1714621250 -1.5363765625 -2.4057433360
314 1 -4.9778009375 -0.9090871875 -3.2175876480
315 1 -5.0208815625 -1.4440071875 -2.3788808880
316 1 -3.9111053125 -0.6830818750 -3.2193491200
317 1 -3.8488225000 -1.2403753125 -2.3929338080
318 1 -2.8465059375 -0.4878350000 -3.2624274720
319 1 -2.7782300000 -1.0500465625 -2.4686771040
320 1 -6.1847115000 0.1583609375 -3.2413416160
321 1 -6.1158900000 -0.4275140625 -2.4699982080
322 1 -5.0002684375 0.2441056250 -3.2801199040
323 1 -5.0591515625 -0.3131475000 -2.4730548800
324 1 -3.8247156250 0.4074115625 -3.2332336640
325 1 -3.9509743750 -0.1341734375 -2.3821706960
326 1 -6.1756465625 1.2686478125 -3.2538921040
327 1 -6.1207221250 0.7139478125 -2.4349630480
328 1 -5.0927453125 1.3731378125 -3.2431160400
329 1 -5.0164203125 0.8046375000 -2.4584838800
330 1 -2.7168609375 1.6940118750 -3.2507577200
331 1 -3.9599103125 0.9824559375 -2.4731973520
332 1 -2.7691462500 0.5903496875 -3.2090004720
333 1 -2.8674953125 1.1559475000 -2.4008345280
334 1 -2.2481878125 -2.1112731250 -4.8834479840
335 1 -2.2543287500 -0.4693450000 -4.0013002160
336 1 -2.2445328125 0.6684484375 -4.1069108240
337 1 -2.2559681250 1.2546996875 -4.8594608800
338 1 -6.6885582219 1.8637275000 -4.8405768640
339 1 -6.1324691875 1.7748921875 -5.6823623144
340 1 -5.5745105938 1.8779175000 -4.8765704720
341 1 -4.9837134375 1.9091328125 -5.6373385720
342 1 -4.4169734375 2.0015559375 -4.8378180880
343 1 -3.8999253125 2.1465465625 -5.7041359216
344 1 -3.3467437500 2.1806375000 -4.8383879760
345 1 -3.3049262500 1.6482975000 -3.9836984480
346 1 -6.1688592813 1.8113750000 -2.3949543200
347 1 -5.0099837500 1.9218178125 -2.4069996800
348 1 -3.9217343750 1.5521790625 -3.2766746720
349 1 -3.8719081250 2.1094859375 -2.4563079440
350 1 -2.7420025000 0.0401243750 -2.3731561040
351 1 -6.7013691313 -0.9619771875 -4.0445210400
352 1 -6.6825070469 -0.4173150000 -4.8473119040
353 1 -6.6781874281 0.7287021875 -4.8794199120
354 1 -6.1143944063 -2.1419240625 -6.4697299886
355 1 -4.9936840625 -0.9067893750 -6.4687905153
356 1 -2.7370440625 1.7039153125 -6.4655493680
357 1 -2.1932956250 -1.5538990625 -4.0583408240
358 1 1.7482725000 -1.3711625000 -3.2067468240
359 1 -1.7220828125 0.8203728125 -3.2488019680
360 1 -1.6469268750 -2.0460878125 -5.6176204472
361 1 -1.1416500000 -1.3625625000 -4.0849960400
362 1 -0.4899715625 -1.8327271875 -5.6549571776
363 1 -0.5818168750 -1.3134887500 -3.2479859920
364 1 -1.0648143750 -1.9288321875 -4.8604322800
365 1 0.0455262500 -1.7879803125 -4.8231305200
366 1 -0.0070412500 -1.2404693750 -4.0187077040
367 1 0.5914918750 -1.8255515625 -5.7031606360
368 1 1.1029365625 -1.8424828125 -4.8023296080
369 1 1.7405190625 -1.3584103125 -6.4286038398
370 1 1.1954806250 -1.2834559375 -4.0123353200
371 1 1.6473971875 -1.9447018750 -5.6764225272
372 1 -2.2380693750 -0.9961756250 -4.8932008400
373 1 -1.6449784375 -0.9516706250 -5.6855498016
374 1 -1.1236303125 -0.7633978125 -4.8312643760
375 1 -0.5116328125 -0.2155106250 -3.2224446480
376 1 -0.5673581250 -0.7534809375 -5.6538368296
377 1 -0.0117443750 -0.6678571875 -4.8158774000
378 1 0.5164031250 -0.6956996875 -5.6671501904
379 1 0.0497187500 -0.0861478125 -4.0474222880
380 1 1.0882762500 -0.7658971875 -4.9000783520
381 1 1.6442931250 -0.2528803125 -6.4547716720
382 1 1.1261565625 -0.1980015625 -4.0783646160
383 1 1.7064281250 -0.7984025000 -5.6176062000
384 1 -2.1743756250 0.0660453125 -4.8518451040
385 1 -1.6716518750 0.2330868750 -5.7230717456
386 1 -1.0789909375 -0.2188700000 -4.0047713520
387 1 -0.5857540625 0.9713162500 -6.4124332678
388 1 -1.1268553125 0.3235615625 -4.8609115040
389 1 -0.5742515625 0.3529896875 -5.7000094144
390 1 -0.0251550000 0.4510296875 -4.8934987360
391 1 0.5063518750 0.9750653125 -6.4725749343
392 1 -0.0099571875 0.9751593750 -4.0224637840
393 1 0.5810509375 0.4433031250 -5.6140508760
394 1 1.1752571875 0.3681606250 -4.8708197840
395 1 1.7382212500 0.3181865625 -5.6617012840
396 1 1.0758062500 0.9315412500 -4.0839469280
397 1 -2.1805703125 1.8380887500 -4.0914590880
398 1 -1.6866212500 1.3704234375 -5.6145003104
399 1 -1.1227434375 0.8639775000 -4.0059370320
400 1 -1.0716809375 1.3880668750 -4.8904809200
401 1 -0.5239684375 1.5717843750 -5.6822120712
402 1 0.0456740625 1.5384325000 -4.8662347760
403 1 -0.0467625000 2.0814418750 -4.0421637760
404 1 0.6028868750 1.5540200000 -5.6853451600
405 1 1.1343131250 1.5344415625 -4.8010991680
406 1 1.6611303125 1.3957531250 -5.6927096672
407 1 -1.6498562500 -1.4860800000 -3.1939113920
408 1 -0.5448100000 -0.7806246875 -2.4054065840
409 1 0.5875412500 -1.2583815625 -3.2896655280
410 1 0.5698440625 -1.7945109375 -2.4344320160
411 1 1.6713428125 -0.7897890625 -2.4321395120
412 1 -1.6899403125 -0.8886621875 -2.4554919680
413 1 -0.5842893750 0.3672737500 -2.4726663200
414 1 -0.5614187500 0.9704428125 -3.2085471520
415 1 0.5907662500 -0.1330850000 -3.2001024480
416 1 1.6713562500 -0.2114256250 -3.2096998800
417 1 -1.6675131250 1.3342900000 -2.3712003520
418 1 -1.6728746875 -0.3313015625 -3.2667922960
419 1 -0.6026853125 2.1055218750 -3.2241672640
420 1 -1.6461206250 0.2340140625 -2.4653484400
421 1 -0.5168331250 1.5378950000 -2.4336030880
422 1 0.5637165625 0.9888253125 -3.2056977120
423 1 1.6426268750 0.8489275000 -3.2945743360
424 1 1.7540103125 0.3348490625 -2.3864837120
425 1 -1.6428418750 1.9064318750 -3.1948957440
426 1 0.5357531250 2.1060728125 -3.3053892560
427 1 1.1592262500 2.0942746875 -3.9987227680
428 1 1.6746484375 1.4002278125 -2.4481222800
429 1 2.2012506250 -2.0392615625 -4.8925014320
430 1 2.1990737500 -0.3662256250 -4.0828848640
431 1 2.2083321875 1.3712162500 -4.8434263040
432 1 1.7309381250 1.9546321875 -3.2504986800
433 1 -1.6366740625 -2.0495009375 -2.3888798320
434 1 -0.4959243750 -1.8707015625 -2.4140714720
435 1 1.6415384375 -1.9436268750 -2.4480445680
436 1 0.5483843750 -0.7285006250 -2.4318286640
437 1 0.5673715625 0.4292340625 -2.4084114480
438 1 0.5900540625 1.5869553125 -2.4406619280
439 1 -1.1315315625 1.9616465625 -4.1104985280
440 1 -1.6950062500 -0.3583243750 -6.4508856834
441 1 -1.7104056250 0.8435390625 -6.4621707610
442 1 0.6042978125 -0.1077418750 -6.4366048082
443 1 6.6986071875 -1.5304775000 -4.8485293920
444 1 6.7062396875 0.1725509375 -4.0733780960
445 1 2.2878687500 0.2475321875 -4.8015265840
446 1 2.2589109375 0.8142587500 -4.0210520160
447 1 2.3059018750 1.9227718750 -4.0424228160
448 1 2.8166209375 -2.0648868750 -5.6199803016
449 1 6.6919959375 1.2760250000 -4.0594287920
450 1 2.7823284375 -1.5603759375 -6.4535876002
451 1 3.3280118750 -1.6823750000 -4.1164694000
452 1 3.4261996875 -1.0803481250 -4.8016431520
453 1 4.4681971875 -1.7763703125 -4.0327217680
454 1 6.2175984375 -2.0360365625 -6.4647908341
455 1 5.6700606250 -1.9582468750 -3.9775073920
456 1 2.2820234375 -1.4967628125 -4.0910446240
457 1 2.7593503125 -0.4603150000 -3.2932402800
458 1 2.2806528125 -0.9108475000 -4.8882920320
459 1 2.8894656250 -0.9806418750 -5.6351030568
460 1 3.3651531250 -0.4804981250 -4.0325792960
461 1 3.9543337500 -1.2004525000 -5.6874304320
462 1 4.5014012500 -1.2079103125 -4.8309276240
463 1 4.5263546875 -0.6418690625 -4.0072322320
464 1 5.0438193750 -1.3063131250 -5.6917745328
465 1 5.5859150000 -1.4306100000 -4.8594608800
466 1 5.6244537500 -0.8708843750 -4.0652960480
467 1 6.1540659375 -1.4510081250 -5.6746493984
468 1 2.7961825000 0.1024340625 -5.7016607944
469 1 3.3438681250 0.0762175000 -4.8368466880
470 1 3.4309834375 0.6332421875 -4.0125684560
471 1 3.8831687500 -0.0602268750 -5.6778938744
472 1 4.4463881250 -0.1183440625 -4.8939650080
473 1 5.0807456250 0.3734281250 -6.4482955425
474 1 4.5184803125 0.4203384375 -4.0537817200
475 1 6.1716690625 -0.3586737500 -5.6529301896
476 1 5.6043378125 -0.2965925000 -4.8542541760
477 1 5.6178290625 0.2715046875 -4.0791028800
478 1 6.1894468750 0.2151478125 -6.4569644456
479 1 2.7610971875 1.2358200000 -5.6706886768
480 1 3.3348381250 1.1665228125 -4.8939909120
481 1 3.3698696875 1.7090618750 -4.0658400320
482 1 3.9037684375 1.0989993750 -5.6779974904
483 1 4.4598928125 0.9871725000 -4.8633464800
484 1 5.0225746875 0.9518453125 -5.6690839240
485 1 4.4739350000 1.5552159375 -4.0568772480
486 1 5.0408093750 -0.1820378125 -5.6532721224
487 1 5.5906046875 0.8397496875 -4.8778397680
488 1 6.1420528125 1.3183665625 -3.2378575280
489 1 6.1804437500 0.7535750000 -5.6305841040
490 1 2.8171181250 -1.5246456250 -3.1991051440
491 1 3.8653103125 -1.7473318750 -3.2882149040
492 1 5.0363346875 -1.8970256250 -3.2799385760
493 1 6.2385340625 -2.0299493750 -3.2164478720
494 1 2.8335656250 0.0949090625 -2.4549350320
495 1 2.8739990625 -0.9678896875 -2.3816655680
496 1 3.9200815625 -0.6477681250 -3.2705354240
497 1 3.9744362500 -1.1890575000 -2.4415297120
498 1 5.0953656250 -0.7362406250 -3.2156189440
499 1 5.0308656250 -1.3300840625 -2.4857089840
500 1 6.1870953125 -0.8828437500 -3.2284284720
501 1 6.1322434375 -1.4593393750 -2.4372555520
502 1 2.8513837500 1.8204453125 -3.1886010720
503 1 2.8261212500 0.6495687500 -3.2707556080
504 1 3.9844875000 0.5376746875 -3.1997916000
505 1 3.8887587500 -0.0588965625 -2.4929750560
506 1 5.0814578125 0.3887468750 -3.2142848880
507 1 4.9991396875 -0.1735990625 -2.4168302480
508 1 6.1541465625 0.1858943750 -3.2260841600
509 1 6.1817606250 -0.3502887500 -2.3652165280
510 1 3.9218687500 1.6751187500 -3.2190253200
511 1 3.8974662500 1.1190884375 -2.4132684480
512 1 5.5771940625 1.3848150000 -4.0525901360
513 1 5.0737850000 2.0498637500 -2.4635740160
514 1 6.1979662500 0.7541125000 -2.4309867840
515 1 4.4834756250 2.0997034375 -4.8691489760
516 1 5.0751556250 2.0792918750 -5.6252232712
517 1 5.6398800000 1.9490421875 -4.8466254480
518 1 6.2042550000 1.8840450000 -5.6627944328
519 1 5.0174818750 1.4804900000 -3.2292055920
520 1 6.1725693750 1.8844078125 -2.4506349680
521 1 2.7734193750 -2.0989240625 -2.4138383360
522 1 2.7530884375 1.2216300000 -2.4796215440
523 1 5.0656418750 0.9358009375 -2.3776893040
524 1 3.9652181250 2.2369943750 -2.3940347280
525 1 3.9500471875 0.5123046875 -6.4473264738
526 1 3.9559328125 1.6755084375 -6.4421083721
527 1 6.1406821875 1.3138112500 -6.4521369762
528 1 5.0581706250 -0.7363481250 -6.4710601202
529 1 2.8262421875 1.7922937500 -6.4583785450
530 1 5.0765934375 1.5339712500 -6.4467098291
531 1 -3.3573190625 6.6907731250 -4.8958430480
532 1 -2.8253553125 2.2861487500 -5.7195889528
533 1 -5.5936429063 6.3045121875 -4.8396572720
534 1 -5.0395193750 6.4140009375 -5.6375030624
535 1 -4.4556062500 6.4981734375 -4.8577123600
536 1 -3.9328875000 6.6159531250 -5.7217441656
537 1 -3.3417450000 6.1416496875 -4.0776134000
538 1 -5.0187584375 6.4440740625 -2.4262593040
539 1 -3.9381684375 6.6051628125 -2.4540931520
540 1 -2.2401790625 6.3145634375 -4.0539241920
541 1 -6.1768841563 6.2784300000 -5.6302227432
542 1 -3.9745034375 2.6808753125 -3.2348397120
543 1 -6.1291286250 2.3570987500 -3.2291926400
544 1 -5.0482537500 2.4635237500 -6.4676716438
545 1 -5.5809041563 2.4376296875 -4.0626408880
546 1 -4.5175396875 2.5913412500 -4.1004477760
547 1 -6.2071803438 2.9443712500 -5.6704905112
548 1 -5.6206697500 2.9815528125 -4.9146364000
549 1 -5.0389012500 3.5835393750 -6.4359323404
550 1 -5.5973825625 3.5167818750 -4.0580299760
551 1 -5.0241737500 3.0282212500 -5.6452107976
552 1 -4.4564125000 3.1687775000 -4.8882272720
553 1 -4.4829112500 3.7101878125 -4.0521238640
554 1 -3.8612790625 3.2257256250 -5.6372712216
555 1 -3.3022387500 3.3100459375 -4.8473637120
556 1 -3.3909128125 3.8928975000 -4.0938034000
557 1 -2.7704765625 3.4688503125 -5.6943221912
558 1 -6.1560210938 5.1901940625 -5.6915077216
559 1 -6.1375848438 4.0849865625 -5.6621675560
560 1 -3.8876434375 4.9259187500 -6.4485346364
561 1 -5.5917777813 4.6341100000 -4.0132031040
562 1 -5.5811272188 4.0947421875 -4.8438019120
563 1 -4.4952737500 4.2610178125 -4.8758451600
564 1 -3.9575856250 5.5041209375 -5.6623864448
565 1 -4.4595300000 4.8275965625 -4.0438993440
566 1 -5.0567596875 4.2003071875 -5.7100018824
567 1 -3.3705818750 4.4622846875 -4.8754047920
568 1 -3.3500359375 5.0356896875 -4.0658141280
569 1 -2.7789690625 4.5459331250 -5.6431566104
570 1 -5.6081621250 5.1933384375 -4.8199702320
571 1 -5.5726710000 5.7732203125 -4.0130088240
572 1 -5.0699553125 5.2984734375 -5.6805632816
573 1 -4.5044650000 5.3616968750 -4.8582822480
574 1 -4.4535771875 5.9328846875 -4.0472409600
575 1 -3.3645081250 5.5773015625 -4.8968144480
576 1 -2.7926484375 6.1984768750 -3.2385051280
577 1 -2.7968678125 5.6633150000 -5.6842183360
578 1 -6.1675141875 2.9095546875 -2.4229824480
579 1 -5.0364690625 2.4796218750 -3.2066691120
580 1 -3.4117409375 2.7529406250 -4.0321389280
581 1 -2.8304078125 2.8545281250 -3.2705354240
582 1 -6.1296244688 3.4964375000 -3.1845082400
583 1 -5.0343593750 3.5986028125 -3.2372617360
584 1 -5.0193900000 3.0502184375 -2.3984902160
585 1 -3.9197725000 3.7850212500 -3.2327155840
586 1 -3.8905996875 3.2423881250 -2.4046553680
587 1 -2.8595671875 3.9837350000 -3.2231570080
588 1 -2.7406184375 3.4095371875 -2.4545205680
589 1 -6.1748282188 4.6492809375 -3.2594614640
590 1 -6.1645095625 4.0942584375 -2.4487828320
591 1 -5.0120934375 4.7184303125 -3.2303971760
592 1 -5.0336471875 4.1508975000 -2.4186305760
593 1 -3.8962434375 4.8965175000 -3.2422612080
594 1 -3.9234006250 4.3458890625 -2.4050050720
595 1 -2.7804337500 5.0838362500 -3.2546821760
596 1 -2.7872196875 4.5459062500 -2.4101858720
597 1 -6.1263793125 6.2752990625 -2.4045388000
598 1 -6.1763963750 5.7631018750 -3.2772575120
599 1 -5.0085056250 5.8729131250 -3.2239859360
600 1 -5.0735296875 5.2856943750 -2.4624471920
601 1 -3.8852650000 6.0216259375 -3.2227295920
602 1 -3.9263031250 5.4442568750 -2.4283834320
603 1 -2.8150353125 5.6371656250 -2.4296009200
604 1 -2.3070037500 2.4260600000 -4.8573626560
605 1 -2.3016018750 4.0604362500 -4.0445728480
606 1 -2.2472471875 5.2069506250 -4.0962383760
607 1 -2.8258928125 2.2761378125 -2.4880792000
608 1 -6.1429128125 5.2059293750 -2.4390688320
609 1 -3.9297968750 4.3504309375 -5.6807873512
610 1 -6.6831102563 2.4172584375 -4.0312970480
611 1 -6.6636750625 3.5304881250 -4.0456867200
612 1 -6.6684402688 5.1782750000 -4.8076399280
613 1 -2.7839812500 2.8766865625 -6.4689230013
614 1 -6.1133476250 2.3661287500 -6.4310327283
615 1 -3.9601387500 3.7549884375 -6.4643216608
616 1 -6.1475299375 3.5137046875 -6.4647140805
617 1 -2.8169300000 6.2306193750 -6.4628319606
618 1 -2.2364434375 5.7721721875 -4.8961668480
619 1 -1.6698781250 6.3771150000 -3.2549412160
620 1 1.0951831250 2.6255531250 -4.8577900720
621 1 -1.6415921875 2.9933509375 -6.4659055091
622 1 -2.2303025000 2.9442503125 -3.9798646560
623 1 -1.7106743750 2.4433675000 -5.6253463152
624 1 -1.1430609375 2.5694381250 -4.8513917840
625 1 -0.5147503125 4.2834987500 -6.4679228349
626 1 -1.0807378125 3.1347403125 -4.0760850640
627 1 -0.5628431250 2.6572521875 -5.6173044184
628 1 0.0269825000 2.6501437500 -4.8379346560
629 1 0.0300059375 3.2435303125 -4.0910057680
630 1 0.5394081250 2.6836165625 -5.7095407912
631 1 1.6492112500 2.5187787500 -5.6641815920
632 1 1.6819181250 3.0838659375 -6.4514507792
633 1 1.1320153125 3.7410134375 -4.8953508720
634 1 -2.2108987500 3.4941800000 -4.8430247920