ITEM: TIMESTEP
12000
ITEM: NUMBER OF ATOMS
2304
ITEM: BOX BOUNDS pp pp pp
-6.7187500000 6.7187500000
-6.7187500000 6.7187500000
-6.4760000000 6.4760000000
ITEM: ATOMS id type x y z
1 1 -6.2146045625 -6.2088398750 -6.4673351897
2 1 -5.6436142813 -6.3227576250 -4.0584314880
3 1 -4.4610887500 -6.4307830313 -4.0426559520
4 1 -2.7739703125 -6.6301279406 -6.4628280750
5 1 -3.3222740625 -6.5641529063 -4.0201971840
6 1 -6.6613983469 -5.5944679688 -4.8725164960
7 1 -6.1008897188 -5.6311698125 -5.7012489208
8 1 -5.5839746250 -5.7322587813 -4.8043501200
9 1 -5.5657076875 -5.1466296875 -4.0456867200
10 1 -5.0561415625 -5.8215348438 -5.7032007872
11 1 -4.5036587500 -5.8957085000 -4.8683459520
12 1 -4.4641390625 -5.3142893750 -4.0781962400
13 1 -3.9245428125 -5.9607460000 -5.6399755992
14 1 -3.3356981250 -6.0339051250 -4.8865305600
15 1 -3.4163903125 -5.4818885938 -4.0610996000
16 1 -2.7775312500 -6.0373478125 -5.7033056984
17 1 -6.6961310594 -3.8733190625 -4.0423839600
18 1 -6.2135335938 -4.5218262500 -5.7007450880
19 1 -5.6617750625 -4.6003818750 -4.8727625840
20 1 -5.0674156250 -4.1756090625 -6.4668959485
21 1 -5.5954502500 -4.0290596875 -4.0815378560
22 1 -5.0798587500 -4.7114159375 -5.6314985152
23 1 -4.4842012500 -4.7573587500 -4.9027076080
24 1 -4.5215843750 -4.2269268750 -4.0600893440
25 1 -3.8855740625 -4.8582743750 -5.6255522520
26 1 -3.3118331250 -4.9095518750 -4.8421440560
27 1 -3.3814259375 -4.3387134375 -4.0547919760
28 1 -2.7795603125 -4.8832143750 -5.6962468584
29 1 -6.1866975625 -3.4196825000 -5.6159962664
30 1 -5.5816297813 -3.4660553125 -4.8831759920
31 1 -5.6747073125 -2.9133978125 -4.0648038720
32 1 -5.0201828125 -3.6013440625 -5.6650947080
33 1 -4.4651065625 -3.6319009375 -4.8227808160
34 1 -3.9146931250 -3.1619109375 -6.4657915963
35 1 -4.4983375000 -3.0624196875 -4.0168167120
36 1 -3.9414875000 -3.7390381250 -5.7154987112
37 1 -3.4047668750 -3.7695009375 -4.8504074320
38 1 -3.3287240625 -3.2186440625 -4.0194718720
39 1 -2.8287684375 -3.7813393750 -5.6311177264
40 1 -6.1818184063 -6.1522505313 -3.2334149920
41 1 -5.0570150000 -6.3701288438 -3.2985376480
42 1 -3.9203771875 -6.5775621875 -3.2405126880
43 1 -2.7735268750 -6.5862608188 -3.2060733200
44 1 -6.1643496563 -5.0848709375 -3.3105700560
45 1 -6.1372206875 -5.5938847813 -2.3992414320
46 1 -5.0250875000 -5.2849418750 -3.2297495760
47 1 -5.0587215625 -5.8519076250 -2.4225420800
48 1 -3.9419712500 -5.4243949063 -3.1888471600
49 1 -3.9095600000 -6.0173877500 -2.4522410160
50 1 -2.8430928125 -5.4501895313 -3.2678025520
51 1 -2.7732984375 -6.0092674688 -2.4416721840
52 1 -6.1510008438 -3.9930203125 -3.2313038160
53 1 -6.1889537188 -4.5579462500 -2.4248345840
54 1 -5.0623362500 -4.1344903125 -3.2120830480
55 1 -5.0648893750 -4.7134718750 -2.4439258320
56 1 -3.9527884375 -4.3124834375 -3.2571948640
57 1 -3.9095196875 -4.8347318750 -2.4188378080
58 1 -2.8340762500 -4.3580903125 -3.2310447760
59 1 -2.7633950000 -4.9239165625 -2.4152112480
60 1 -6.2087834375 -2.8381478125 -3.2148029680
61 1 -6.1681927813 -3.4255009375 -2.4515675120
62 1 -5.0974081250 -3.0332737500 -3.2819979440
63 1 -5.0151706250 -3.5734881250 -2.4140196640
64 1 -3.9305090625 -3.2178512500 -3.2667922960
65 1 -3.9310062500 -3.7432843750 -2.4223607520
66 1 -2.7817371875 -3.2199743750 -3.2015789760
67 1 -2.8246565625 -3.7987006250 -2.4380844800
68 1 -2.2688950000 -4.2759603125 -4.0507380000
69 1 -2.2526356250 -3.1689925000 -4.0828848640
70 1 -6.1369129688 -2.3174312500 -5.6682148448
71 1 -5.5842930938 -2.3307612500 -4.8234025120
72 1 -5.0685443750 -2.4829006250 -5.7126324336
73 1 -4.5127559375 -2.5361534375 -4.8624009840
74 1 -3.9633637500 -2.5955740625 -5.6901399904
75 1 -3.4069571875 -2.6803243750 -4.8815310880
76 1 -2.8255434375 -2.6596978125 -5.6844333392
77 1 -6.1564255625 -2.2836359375 -2.3996818000
78 1 -5.0641368750 -2.5067118750 -2.4399884240
79 1 -3.9475075000 -2.6420678125 -2.4783781520
80 1 -2.8528350000 -2.6207290625 -2.4491454880
81 1 -2.3008090625 -2.5924565625 -4.8622585120
82 1 -2.2517890625 -5.9399447500 -4.8602380000
83 1 -2.2446806250 -5.4077364375 -4.0008857520
84 1 -3.9260075000 -5.4057826250 -6.4710238934
85 1 -2.8118371875 -5.4663131875 -6.4603346855
86 1 -3.9583112500 -4.3305971875 -6.4716828653
87 1 -6.2224184688 -2.8832306250 -6.4758733114
88 1 -2.2392921875 -3.7431500000 -4.8756508800
89 1 -2.2280584375 -6.5135902813 -4.0542998000
90 1 -1.1262909375 -6.3550909375 -4.0869258880
91 1 0.5970012500 -6.0946829375 -6.4362914994
92 1 0.0530512500 -6.2387759375 -4.0195107280
93 1 0.5361428125 -6.6753104594 -5.6652980544
94 1 1.1085937500 -6.5615661875 -4.9235991840
95 1 1.6809237500 -5.9563546250 -6.4371195207
96 1 1.1683906250 -6.0188295938 -4.0392884320
97 1 1.7307231250 -6.5236052500 -5.6292008304
98 1 -1.6523153125 -5.3996242188 -6.4709540562
99 1 -1.6595850000 -5.9415102188 -5.6446914224
100 1 -1.1211981250 -5.7746917188 -4.8368207840
101 1 -1.1025200000 -5.1955959375 -4.0677051200
102 1 -0.5472018750 -5.6906871875 -5.6422253616
103 1 0.0118921875 -5.6751064063 -4.8189988320
104 1 -0.0152650000 -5.0789853125 -4.0858508720
105 1 0.5218318750 -5.4948772813 -5.7180904064
106 1 1.0695040625 -5.4723627500 -4.8759746800
107 1 1.1493496875 -4.9250587500 -4.0039942320
108 1 1.6501115625 -5.3841388438 -5.6590176296
109 1 -2.2270640625 -4.8649662500 -4.8412244640
110 1 -1.6914050000 -4.8126406250 -5.7109901200
111 1 -1.1639696875 -4.6310865625 -4.8711176800
112 1 -1.1120203125 -4.1004531250 -3.9966763520
113 1 -0.5599809375 -4.6421725000 -5.6266065448
114 1 0.0046762500 -4.4943331250 -4.8455892880
115 1 -0.0091240625 -3.9129193750 -4.0929615200
116 1 0.5663503125 -4.3757068750 -5.6436293584
117 1 1.1386265625 -4.3875453125 -4.8395277520
118 1 1.0739921875 -3.7941587500 -4.0880527120
119 1 1.6503668750 -4.2008312500 -5.7297873576
120 1 -1.6878978125 -3.6392378125 -5.6743787016
121 1 -1.1143315625 -3.5648343750 -4.8687992720
122 1 -0.5674253125 -2.9220112500 -6.4334077366
123 1 -1.1830643750 -3.0117468750 -4.0508416160
124 1 -0.5665921875 -3.5159084375 -5.7041812536
125 1 -0.0396540625 -3.3210243750 -4.8655094640
126 1 0.5499968750 -2.7730296875 -6.4688021203
127 1 -0.0392509375 -2.8090287500 -3.9867680720
128 1 0.5617950000 -3.3315728125 -5.6308781144
129 1 1.1181746875 -3.2006915625 -4.8326372880
130 1 1.0840434375 -2.6109868750 -4.0988935360
131 1 1.6698109375 -3.0893081250 -5.6434946576
132 1 -1.6600150000 -6.4689670313 -3.2330652880
133 1 -0.5617009375 -6.2621719688 -3.2957918240
134 1 0.6004278125 -6.0457932813 -3.2284155200
135 1 0.5263334375 -6.6210300813 -2.4591703360
136 1 1.6941596875 -5.9302428750 -3.1615313920
137 1 1.7224053125 -6.5164484375 -2.4093698960
138 1 -1.6526243750 -5.3480578125 -3.2533740240
139 1 -1.6874543750 -5.8916826250 -2.4326964480
140 1 -0.5485859375 -5.1928412500 -3.2234419520
141 1 -0.5478200000 -5.7489938438 -2.4033213120
142 1 0.5369490625 -4.9330675000 -3.2883573760
143 1 0.5334956250 -5.4804561563 -2.4310644960
144 1 1.7009456250 -4.7320828125 -3.2194786400
145 1 1.6386090625 -5.3052459375 -2.4583025520
146 1 -1.7163853125 -4.2011671875 -3.2674139920
147 1 -1.6908271875 -4.7738331250 -2.4694283200
148 1 -0.5277712500 -4.0657709375 -3.2377021040
149 1 -0.6022015625 -4.6156737500 -2.4316343840
150 1 0.5389915625 -3.8587259375 -3.2230922480
151 1 0.5704218750 -4.4201043750 -2.3925841040
152 1 1.6200518750 -3.6033193750 -3.2717011040
153 1 1.6447634375 -4.1464900000 -2.4384859920
154 1 -1.7213706250 -3.0715571875 -3.1850133680
155 1 -1.6456234375 -3.6757878125 -2.4256894160
156 1 -0.6298021875 -2.9111940625 -3.2360572000
157 1 -0.5697500000 -3.4833090625 -2.4556085360
158 1 0.5566484375 -2.7673590625 -3.2563529840
159 1 0.5324071875 -3.2952109375 -2.4058469520
160 1 1.6276843750 -2.5033928125 -3.2546562720
161 1 1.6882740625 -3.0625003125 -2.4029457040
162 1 2.2261503125 -5.2370371875 -4.9032515920
163 1 2.1889553125 -4.1505212500 -4.8594738320
164 1 2.2242959375 -3.6123359375 -3.9983471600
165 1 2.1936315625 -2.4785065625 -4.0589236640
166 1 -1.6939178125 -2.5481800000 -5.6330294416
167 1 -1.1327678125 -2.4466462500 -4.8437242000
168 1 -0.5936687500 -2.3343221875 -5.6857117016
169 1 -0.0180600000 -2.2730606250 -4.8812979520
170 1 -1.7216125000 -2.5135381250 -2.3771841760
171 1 -0.5125331250 -2.3613987500 -2.4088000080
172 1 2.1976090625 -5.7914644063 -4.0823926880
173 1 1.6809506250 -4.8149518750 -6.4409051313
174 1 -1.6809640625 -4.2194287500 -6.4490441681
175 1 -0.5569037500 -4.1005606250 -6.4675165566
176 1 6.6996687500 -6.1759784688 -4.0827035360
177 1 6.6707378125 -5.0548650000 -4.0493003280
178 1 6.7028937500 -4.4581593750 -4.7987160000
179 1 6.6590875000 -3.3333600000 -4.8895742800
180 1 6.6836781250 -2.7744540625 -4.0811622480
181 1 2.2849393750 -6.3819860938 -4.8508348480
182 1 2.8461834375 -6.3083459063 -5.6655052864
183 1 3.3895018750 -6.2916619063 -4.8275471520
184 1 3.3104087500 -5.7240955000 -4.0576543680
185 1 3.9397540625 -6.3103507813 -5.6633345312
186 1 4.4997887500 -6.3252892500 -4.8234284160
187 1 4.5008771875 -5.7798329063 -4.0001863440
188 1 5.0140956250 -6.4805501563 -5.7219967296
189 1 5.5546190625 -6.5036653438 -4.8513529280
190 1 6.1880090625 -6.0144032813 -6.4267285197
191 1 5.6613800000 -5.9471042500 -4.0415938880
192 1 2.2672959375 -4.7124506250 -4.0260126320
193 1 2.8234203125 -5.2220140625 -5.6305335912
194 1 3.3808481250 -5.1441437500 -4.8224829200
195 1 3.3529384375 -4.5511603125 -4.0777947280
196 1 3.8977887500 -5.2113043750 -5.7156994672
197 1 4.4378821875 -5.2420896875 -4.8467420160
198 1 5.0420993750 -4.7228512500 -6.4344609932
199 1 4.5048412500 -4.6586334375 -4.0482382640
200 1 4.9894512500 -5.3192209375 -5.6873579008
201 1 5.5627353125 -5.4168416875 -4.9257751200
202 1 5.5655303125 -4.8944212500 -4.0562814560
203 1 6.1962193750 -5.4635410313 -5.6090915552
204 1 2.8172121875 -3.5340625000 -6.4423000617
205 1 2.7508981250 -4.1171559375 -5.6930503048
206 1 3.2929400000 -4.0017143750 -4.8763891440
207 1 3.9168431250 -3.5156396875 -6.4462328070
208 1 3.3882656250 -3.4565550000 -4.0430574640
209 1 3.8783043750 -4.0868543750 -5.6342987376
210 1 4.4696350000 -4.1399056250 -4.9109968880
211 1 4.4430959375 -3.5827062500 -4.0717331920
212 1 5.0717021875 -4.1671300000 -5.6340137936
213 1 5.6396784375 -4.3185437500 -4.8560545040
214 1 5.5479271875 -3.7659803125 -4.0458291920
215 1 6.1846900000 -4.3477568750 -5.7118242288
216 1 2.2502840625 -3.0768112500 -4.8358623360
217 1 2.7572675000 -2.9366043750 -5.7225756840
218 1 3.3100056250 -2.9072837500 -4.8900923600
219 1 3.3498209375 -2.3815818750 -4.0132419600
220 1 3.9051793750 -2.9415628125 -5.6487907304
221 1 4.4661278125 -3.0024212500 -4.8537231440
222 1 4.4790681250 -2.4396587500 -4.0574730400
223 1 5.0286081250 -3.0648384375 -5.6839877904
224 1 5.5692659375 -3.1803203125 -4.8136108000
225 1 5.6080331250 -2.5947275000 -4.0623041360
226 1 6.0914606250 -3.2374968750 -5.6884238504
227 1 2.7487615625 -5.7761510313 -3.2441133440
228 1 2.8531575000 -6.3240570313 -2.4049662160
229 1 3.8810725000 -5.7350940938 -3.2959472480
230 1 3.9323500000 -6.2697601250 -2.4466457520
231 1 5.0715543750 -5.9363865000 -3.2521435840
232 1 5.0315912500 -6.4822446250 -2.4443402960
233 1 6.1889631250 -6.0473036563 -3.1682405280
234 1 6.1160512500 -6.6652706313 -2.4563986080
235 1 2.8291446875 -4.6612268750 -3.2094926480
236 1 2.8231112500 -5.2267575000 -2.4148485920
237 1 3.9210893750 -4.6483134375 -3.2678025520
238 1 3.9223659375 -5.2032821875 -2.4132814000
239 1 5.0454856250 -4.7541068750 -3.1860754320
240 1 4.9931868750 -5.3584853125 -2.4705033360
241 1 6.1436115625 -4.8697365625 -3.2332336640
242 1 6.1586078125 -5.4467105625 -2.4606468640
243 1 2.8066234375 -3.5319662500 -3.2539050560
244 1 2.7400809375 -4.0841534375 -2.4309349760
245 1 3.9261687500 -3.5210953125 -3.1906733920
246 1 3.8884765625 -4.1044171875 -2.4378254400
247 1 5.0113140625 -3.5842246875 -3.2335315600
248 1 5.0380278125 -4.1633137500 -2.4547278000
249 1 6.1404134375 -3.7941587500 -3.2965041840
250 1 6.1700968750 -4.3138540625 -2.4091367600
251 1 2.7603581250 -2.3847128125 -3.2746800640
252 1 2.7520268750 -2.9615846875 -2.4769663840
253 1 3.9338550000 -2.3697837500 -3.2416913200
254 1 3.8565893750 -2.9226696875 -2.4568907840
255 1 5.0287962500 -2.5163734375 -3.2506929600
256 1 5.0305968750 -3.0398312500 -2.3883617520
257 1 6.1375109375 -2.6997684375 -3.2165903440
258 1 6.1480996875 -3.2653931250 -2.4153278160
259 1 6.6857206250 -6.7128072656 -4.9224594080
260 1 6.1043471875 -6.6102467563 -5.6789300344
261 1 5.0809337500 -5.8876231563 -6.4644252121
262 1 3.9317184375 -4.6136984375 -6.4748299811
263 1 2.7310778125 -2.3564000000 -6.4612137378
264 1 6.1715346875 -2.6598456250 -6.4638953069
265 1 -3.3965028125 -2.1418165625 -4.0383040800
266 1 -5.0366571875 -1.8922150000 -6.4748852032
267 1 -5.6139510000 -1.7673403125 -4.0192905440
268 1 -3.9330353125 -2.0084359375 -6.4703127379
269 1 -4.4891731250 -1.9669006250 -4.0387962560
270 1 -2.8301659375 -2.0879321875 -6.4492287341
271 1 -6.7143241175 -1.0427634375 -4.8105152720
272 1 -6.1565008125 -0.6166334375 -6.4519543530
273 1 -6.2063525938 -1.2115518750 -5.7128046952
274 1 -5.6463837500 -1.2221003125 -4.8703276080
275 1 -5.5925343125 -0.6946515625 -3.9964043600
276 1 -5.0963465625 -1.3361040625 -5.6830332280
277 1 -4.5230356250 -1.4351115625 -4.8915300320
278 1 -4.4726853125 -0.9100278125 -4.0412700880
279 1 -3.9404931250 -1.4625912500 -5.6445165704
280 1 -3.3696681250 -1.5892396875 -4.8541117040
281 1 -3.3488534375 -1.0132681250 -4.0904876880
282 1 -2.8223990625 -1.4961581250 -5.6862129440
283 1 -6.1862044063 -0.0401781250 -5.6929531648
284 1 -5.6284258750 -0.1680762500 -4.8829558080
285 1 -5.6038365938 0.3824581250 -4.0523699520
286 1 -5.0476893750 -0.1678209375 -5.6889108456
287 1 -4.5318371875 -0.3360450000 -4.8298655600
288 1 -4.4824409375 0.2440921875 -4.0666819120
289 1 -3.9604343750 -0.3667900000 -5.6615212512
290 1 -3.4112168750 -0.4173150000 -4.8303836400
291 1 -3.3657981250 0.1476243750 -4.0492614720
292 1 -2.8473525000 -0.3924690625 -5.6121236184
293 1 -6.1600510000 1.1321228125 -5.6765870176
294 1 -5.6344700625 0.9411221875 -4.8435428720
295 1 -5.0337412500 1.4775740625 -6.4659283823
296 1 -5.5717061875 1.5377337500 -4.1068849200
297 1 -5.0429459375 0.9225918750 -5.6279393056
298 1 -4.4661546875 0.8024068750 -4.8632558160
299 1 -3.9613884375 1.2687015625 -6.4678643955
300 1 -4.5044650000 1.3729900000 -4.0740645520
301 1 -3.8878718750 0.7149153125 -5.6425608184
302 1 -3.3215350000 0.7282050000 -4.8438407680
303 1 -3.4023750000 1.2714831250 -4.0159230240
304 1 -2.7762815625 0.6984678125 -5.6983580344
305 1 -6.2290821250 -1.7612531250 -3.2800033360
306 1 -5.0661525000 -1.9239812500 -3.2142460320
307 1 -3.9435165625 -2.0308631250 -3.2029648400
308 1 -2.8192143750 -2.0674265625 -3.2659374640
309 1 -6.1863575938 -0.6418959375 -3.2262395840
310 1 -6.1856937813 -1.2107859375 -2.4439387840
311 1 -5.0138134375 -0.7462784375 -3.2125881760
312 1 -5.0893859375 -1.3327312500 -2.4809815040
313 1 -3.8895381250 -0.9124465625 -3.2482450320
314 1 -3.9453171875 -1.4678587500 -2.4199516800
315 1 -2.8204237500 -0.9579056250 -3.2160204560
316 1 -2.7842500000 -1.5331246875 -2.4142009920
317 1 -6.1286932500 0.5534368750 -3.2170307120
318 1 -6.2018752188 -0.0477568750 -2.4885972800
319 1 -5.0276943750 0.3767068750 -3.2471052560
320 1 -5.0912940625 -0.1736528125 -2.4261168320
321 1 -3.9335593750 0.1671625000 -3.2416913200
322 1 -3.9725281250 -0.3716409375 -2.3920401200
323 1 -2.8028475000 0.1449503125 -3.2268742320
324 1 -2.8279890625 -0.4084865625 -2.3999019840
325 1 -6.0999786563 1.6463893750 -3.2422871120
326 1 -6.2012544063 1.1058256250 -2.4037228240
327 1 -5.0433356250 1.4456062500 -3.2100754880
328 1 -5.0412393750 0.8975712500 -2.3694518320
329 1 -3.9575721875 1.2918006250 -3.2075498480
330 1 -3.8721903125 0.7141090625 -2.4322560800
331 1 -2.8024309375 1.2601687500 -3.2936029360
332 1 -2.7834168750 0.7189331250 -2.4338103200
333 1 -2.2613968750 -1.5074187500 -4.8641106480
334 1 -2.2508350000 0.7498662500 -4.8206307840
335 1 -5.5720313750 2.1179381250 -4.8685402320
336 1 -4.9900021875 2.0120237500 -5.6187045296
337 1 -4.3975025000 1.9385878125 -4.8685013760
338 1 -3.8508650000 1.8378200000 -5.6846625896
339 1 -3.2867318750 1.8135921875 -4.8561710720
340 1 -2.7388446875 1.8202437500 -5.6938740520
341 1 -6.1482018125 2.1781650000 -2.3743088320
342 1 -4.9813887500 2.0064740625 -2.4156645680
343 1 -3.8429368750 1.8556246875 -2.4406619280
344 1 -2.7293175000 1.7902646875 -2.4516840800
345 1 -2.2539659375 -0.9407862500 -4.0472021040
346 1 -2.2643396875 0.1414968750 -4.0658270800
347 1 -6.6924630250 -2.1956203125 -4.8700685680
348 1 -6.7161797556 0.5894359375 -4.0005619520
349 1 -6.6827151938 1.6617215625 -4.0431869840
350 1 -6.1580058125 2.2193643750 -5.6181968112
351 1 -5.0362271875 -0.7577271875 -6.4472478552
352 1 -6.1440953125 0.5537459375 -6.4429006459
353 1 0.5396500000 -2.2037231250 -5.6928132832
354 1 -2.2329362500 -2.0532231250 -4.0206764080
355 1 -1.1203918750 -1.8622896875 -4.0763700080
356 1 0.5471481250 -1.5974365625 -6.4236066991
357 1 -0.0477031250 -1.7300781250 -4.0392625280
358 1 1.0698265625 -2.0201400000 -4.8571554240
359 1 1.6619500000 -1.4754643750 -6.4653398434
360 1 1.0908025000 -1.5003103125 -3.9992278960
361 1 1.6593028125 -2.0194815625 -5.6151893568
362 1 -1.7069387500 -0.8557268750 -6.4400601428
363 1 -1.7031493750 -1.4493821875 -5.7134911512
364 1 -1.1780521875 -1.2999303125 -4.8687215600
365 1 -1.1184434375 -0.7591784375 -4.0142004080
366 1 -0.5799221875 -1.2431300000 -5.6383099720
367 1 -0.0096481250 -1.1683368750 -4.8430377440
368 1 -0.0292265625 -0.5915859375 -4.0930133280
369 1 0.5343959375 -1.0184550000 -5.6681837600
370 1 1.0919312500 -0.9369296875 -4.8310312400
371 1 1.6706575000 -0.3187375000 -6.4287863334
372 1 1.0964596875 -0.3572359375 -3.9932181680
373 1 1.6522884375 -0.9040481250 -5.6726444288
374 1 -2.2333259375 -0.4012437500 -4.8893022880
375 1 -1.6544384375 0.2959609375 -6.4681062611
376 1 -1.6927621875 -0.2629181250 -5.6827456936
377 1 -1.1114693750 -0.2090203125 -4.8903384480
378 1 -0.5784440625 0.4410187500 -6.4315857787
379 1 -1.1826343750 0.3177431250 -4.0495075600
380 1 -0.5330656250 -0.1457296875 -5.6828829848
381 1 -0.0083581250 0.0162728125 -4.8317954080
382 1 -0.0234618750 0.5407518750 -4.0257276880
383 1 0.5627893750 0.0760562500 -5.6502711440
384 1 1.1106631250 0.1590462500 -4.8195169120
385 1 1.6417668750 0.2721765625 -5.6513280272
386 1 1.1198812500 0.7812293750 -4.0844261520
387 1 -2.1893987500 1.2976862500 -4.0024270400
388 1 -1.7077987500 0.8681296875 -5.6542020760
389 1 -1.1263178125 0.8815671875 -4.8641495040
390 1 -0.5172362500 1.5833003125 -6.4740376425
391 1 -1.0161437500 1.4613012500 -4.0857990640
392 1 -0.5732303125 1.0262487500 -5.6736002864
393 1 -0.0043940625 1.0909906250 -4.9073314720
394 1 0.5420553125 1.7384228125 -6.4233871627
395 1 0.1089646875 1.6628368750 -4.0673036080
396 1 0.6062596875 1.1567806250 -5.6571059144
397 1 1.1133103125 1.3786337500 -4.7250061680
398 1 1.6461475000 1.3410087500 -5.6801514080
399 1 -1.6683059375 -1.9757425000 -3.2288299840
400 1 -0.6060581250 -1.7873353125 -3.1886787840
401 1 0.4997809375 -1.6009437500 -3.2268612800
402 1 0.5531546875 -2.1890896875 -2.4799064880
403 1 1.6764759375 -1.3871934375 -3.2426109120
404 1 1.6615468750 -1.9723159375 -2.4316473360
405 1 -1.7041034375 -0.8607928125 -3.2312261040
406 1 -1.7075568750 -1.4182340625 -2.4057044800
407 1 -0.5436006250 -0.6660968750 -3.2122255200
408 1 -0.5848537500 -1.2173837500 -2.4108334720
409 1 0.5098993750 -0.5448503125 -3.2420539760
410 1 0.6315625000 -1.0451284375 -2.3145742080
411 1 1.6807759375 -0.3130400000 -3.2196729200
412 1 -1.7066431250 0.2780756250 -3.1992087600
413 1 -1.6509850000 -0.3052193750 -2.4295879680
414 1 -0.5921100000 0.4626665625 -3.2799256240
415 1 -0.5567425000 -0.0704796875 -2.4455577840
416 1 0.5341943750 1.1689415625 -2.4589112960
417 1 0.5574143750 0.5664040625 -3.2426497680
418 1 1.6445753125 0.8463475000 -3.1915670800
419 1 1.6677953125 0.2769065625 -2.4613592240
420 1 -1.6023412500 1.4049040625 -3.2758068880
421 1 -1.6881531250 0.8548668750 -2.4319581840
422 1 -0.5002109375 1.5818759375 -3.2382460880
423 1 -0.5353500000 1.0200137500 -2.4339398400
424 1 0.6453896875 1.7190459375 -3.3457476880
425 1 1.5475162500 1.9264403125 -3.4347797360
426 1 1.6736137500 1.4543540625 -2.4248216320
427 1 2.1777618750 -0.7383234375 -4.8166286160
428 1 2.2309340625 -0.1619084375 -4.0157157920
429 1 2.2297650000 0.8863509375 -4.0059888400
430 1 2.2283809375 1.4355146875 -4.8778656720
431 1 -2.2075125000 1.8580300000 -4.8095827280
432 1 -1.6535650000 1.9330515625 -5.6773226912
433 1 -1.1256190625 2.0497159375 -4.8047257280
434 1 -0.5815884375 2.1383362500 -5.6544727728
435 1 -1.6588056250 1.9448496875 -2.4378254400
436 1 -0.5677209375 2.1448265625 -2.4527720480
437 1 0.5352156250 0.0526750000 -2.4411800080
438 1 1.5479731250 -0.8640850000 -2.3421878720
439 1 2.2305846875 0.3604206250 -4.8776454880
440 1 2.2334334375 -1.9336428125 -4.8512104560
441 1 2.2044890625 -1.3390603125 -4.1003700640
442 1 2.1977165625 1.9750168750 -4.0228005360
443 1 -0.0100781250 2.2104150000 -4.9004280560
444 1 0.5552240625 2.2272925000 -2.4335642320
445 1 1.6683059375 1.9141450000 -6.4455972523
446 1 6.6988356250 0.0614900000 -4.8783578480
447 1 6.6911225000 1.1216146875 -4.8852224080
448 1 6.6484853125 -1.6444140625 -4.0716425280
449 1 6.7057962500 -0.4798262500 -4.0241216400
450 1 2.7951343750 -1.7936643750 -5.6462767472
451 1 3.3716300000 -1.8318000000 -4.8511068400
452 1 3.2936521875 -1.2607196875 -4.0565664000
453 1 3.8923465625 -1.8093459375 -5.7303157992
454 1 4.4280459375 -1.8591050000 -4.8371963920
455 1 5.0509681250 -1.3822484375 -6.4433538364
456 1 4.4372640625 -1.2925396875 -4.0129958720
457 1 4.9694696875 -1.9724234375 -5.6745159928
458 1 5.5488006250 -2.0420431250 -4.8933303600
459 1 5.5395959375 -1.4950831250 -4.0697385840
460 1 6.1449015625 -2.1236087500 -5.6089568544
461 1 2.8126165625 -0.2325359375 -3.2186108560
462 1 2.7539618750 -0.7545962500 -5.6297422240
463 1 3.3272996875 -0.6916415625 -4.8384915920
464 1 3.9036206250 -0.1034015625 -6.4744848362
465 1 3.3444862500 -0.1135603125 -4.0587164320
466 1 3.8686562500 -0.6670106250 -5.6622167736
467 1 4.4526096875 -0.7862953125 -4.9034717760
468 1 4.4308275000 -0.2308562500 -4.0750489040
469 1 5.0425831250 -0.8261509375 -5.6427628696
470 1 5.6077106250 -0.9235190625 -4.8440609520
471 1 5.5407650000 -0.3542796875 -4.0591308960
472 1 6.1756196875 -1.0310996875 -5.6592909168
473 1 2.8169434375 0.9275906250 -6.4366981922
474 1 2.7833765625 0.3533659375 -5.6877464608
475 1 3.3465825000 0.4378609375 -4.8764150480
476 1 3.3252840625 0.9829531250 -4.0233315680
477 1 3.9368112500 0.4374981250 -5.6371339304
478 1 4.4936612500 0.3568596875 -4.8286610240
479 1 4.4631178125 0.9499506250 -4.1017688800
480 1 5.0517071875 0.2718271875 -5.6522139440
481 1 5.6122659375 0.2203346875 -4.8242055360
482 1 6.1661462500 0.6453493750 -6.4458807716
483 1 5.6093903125 0.7945190625 -4.0342889600
484 1 6.1307787500 0.0567868750 -5.6930982272
485 1 2.7673590625 1.5212056250 -5.6869460272
486 1 3.3266412500 1.5265403125 -4.8570388560
487 1 3.3498881250 2.0945031250 -4.0580429280
488 1 3.9063350000 1.5329500000 -5.6415933040
489 1 4.4729137500 1.5447884375 -4.8203846960
490 1 5.0491675000 1.9171012500 -6.4529795038
491 1 4.4730346875 2.1058175000 -4.0285253200
492 1 5.0052537500 1.3540565625 -5.6682549960
493 1 5.5887906250 1.3348543750 -4.8811943360
494 1 6.1936393750 1.8187656250 -6.4382486761
495 1 5.6122525000 1.8551946875 -3.9975829920
496 1 6.1386262500 1.2310631250 -5.7026270136
497 1 2.7337250000 -1.2706231250 -3.2110339360
498 1 2.7567971875 -1.8594275000 -2.4311422080
499 1 3.8467128125 -1.2418937500 -3.2374819200
500 1 3.8666003125 -1.8075184375 -2.4369317520
501 1 5.0029693750 -1.3898540625 -3.2209033600
502 1 4.9989515625 -1.9452528125 -2.4228399760
503 1 6.1042396875 -1.5666109375 -3.2386476000
504 1 6.1372825000 -2.1270756250 -2.4280855360
505 1 2.7698046875 0.3505575000 -2.4557898640
506 1 2.7198978125 -0.7477700000 -2.3413848480
507 1 3.9014975000 -0.1076881250 -3.2166551040
508 1 3.9157009375 -0.6960893750 -2.4307925040
509 1 4.9895184375 -0.2398056250 -3.2354355040
510 1 5.0250471875 -0.8140437500 -2.4426694880
511 1 6.0985153125 -0.4949568750 -3.2721932800
512 1 6.1556650000 -1.0222981250 -2.3981146080
513 1 2.7349478125 1.5504321875 -2.4883900480
514 1 2.7916943750 0.9451803125 -3.1904532080
515 1 3.9335996875 0.9710475000 -3.2614819760
516 1 3.8691265625 0.4352003125 -2.3858361120
517 1 5.0057643750 0.8124850000 -3.2649013040
518 1 5.0248859375 0.2939856250 -2.3808625440
519 1 6.1451300000 0.6391815625 -3.2049724000
520 1 6.1373362500 0.0600118750 -2.4502982160
521 1 2.7741046875 2.1219962500 -3.2604587680
522 1 3.8854262500 2.0540025000 -3.2269001360
523 1 3.8864475000 1.5109125000 -2.3999796960
524 1 5.0307850000 1.9361690625 -3.2303842240
525 1 5.0238781250 1.3701950000 -2.4461535760
526 1 6.2148706250 1.8281315625 -3.2299050000
527 1 6.1243556250 1.2489753125 -2.4918223280
528 1 6.6889053125 2.2188134375 -4.8361602320
529 1 3.9231453125 -1.2144409375 -6.4726898315
530 1 -5.5360376875 6.5697953125 -4.8840437760
531 1 -6.1443076250 6.7176078125 -2.4495729040
532 1 -6.1287765625 6.6893621875 -5.6048329376
533 1 -4.9611250000 6.5101059375 -5.6775610080
534 1 -4.4320771875 6.4179381250 -4.8052567600
535 1 -3.9107156250 6.3425671875 -5.7260921520
536 1 -3.3769243750 6.3218331250 -4.8676724480
537 1 -2.7960212500 6.2600743750 -5.6438210480
538 1 -4.9987500000 6.5427725000 -2.3948507040
539 1 -3.9129462500 6.2968259375 -2.4269975680
540 1 -2.8027668750 6.2518103125 -2.4727958400
541 1 -5.6216721875 2.6764812500 -4.0614881600
542 1 -4.4845909375 2.4722850000 -4.0223860720
543 1 -3.3404953125 2.3793378125 -4.0472668640
544 1 -6.6496644531 3.4033425000 -4.8707938800
545 1 -6.0823741875 3.2861675000 -5.6400934624
546 1 -5.5090914688 3.2508000000 -4.8415871200
547 1 -5.5995809375 3.7935406250 -3.9985414400
548 1 -4.9931868750 3.1346865625 -5.7266296600
549 1 -4.4695006250 3.0458646875 -4.8166674720
550 1 -4.4061159375 3.6207343750 -4.0278647680
551 1 -3.9344193750 2.9831653125 -5.6953972072
552 1 -3.3745459375 2.9261096875 -4.8847302320
553 1 -2.7882678125 3.4856471875 -6.4365609010
554 1 -3.3100190625 3.4832687500 -4.0793489680
555 1 -2.7802053125 2.9299796875 -5.6319375880
556 1 -6.6332806469 4.5408806250 -4.8291272960
557 1 -6.6986746438 5.0889962500 -3.9950444000
558 1 -6.1288639063 4.4072715625 -5.7332610840
559 1 -5.6001305313 4.3484690625 -4.8246847600
560 1 -5.5108275938 4.9179637500 -4.0312063840
561 1 -5.0654403125 4.2708137500 -5.6963284560
562 1 -4.5086306250 4.1566621875 -4.8910896640
563 1 -4.4536040625 4.7087150000 -4.0836360800
564 1 -3.9142765625 4.1044440625 -5.6205191048
565 1 -3.3242493750 4.0569828125 -4.8793551520
566 1 -3.3614040625 4.6102315625 -4.0749582400
567 1 -2.7620915625 4.0825140625 -5.6812095864
568 1 -6.6275158250 6.1975362500 -4.0354675920
569 1 -6.2073120313 5.5519181250 -5.6844657192
570 1 -5.6354698125 5.4482343750 -4.9054404800
571 1 -5.5869698438 5.9959200000 -4.0863560000
572 1 -5.0218893750 5.3920656250 -5.6093816800
573 1 -4.4259631250 5.2975865625 -4.8860254320
574 1 -4.5034034375 5.8268628125 -4.0518389200
575 1 -3.8572881250 5.2043571875 -5.6773317576
576 1 -3.3259962500 5.2018175000 -4.8191542560
577 1 -3.3115509375 5.7788640625 -4.0352603600
578 1 -2.7885096875 5.1937684375 -5.6762632176
579 1 -6.1732560313 2.7220612500 -3.2200226240
580 1 -5.0602131250 2.5635659375 -3.2474290560
581 1 -3.9121937500 2.4204700000 -3.2514571280
582 1 -2.7988296875 2.3780343750 -3.2070576720
583 1 -6.1939685938 3.8485537500 -3.2636708640
584 1 -6.0895538438 3.2905615625 -2.4430062400
585 1 -4.9983200000 3.6834606250 -3.2811301600
586 1 -5.0036546875 3.1255490625 -2.4583543600
587 1 -3.8478415625 3.5272765625 -3.2269648960
588 1 -3.9202025000 2.9694456250 -2.4251713360
589 1 -2.7676143750 3.5029950000 -3.2241672640
590 1 -2.7587725000 2.9482412500 -2.4194595040
591 1 -6.1068210313 4.9685425000 -3.2747707280
592 1 -6.1283559688 4.4067340625 -2.4545464720
593 1 -4.9796418750 4.8263065625 -3.1917095520
594 1 -5.0554159375 4.2318181250 -2.4620974880
595 1 -3.8909221875 4.6752421875 -3.2256049360
596 1 -3.9130268750 4.1014475000 -2.4489253040
597 1 -2.7798962500 4.5836521875 -3.2906498800
598 1 -2.7864134375 4.0657843750 -2.3854864080
599 1 -6.1071059063 6.1167903125 -3.1693414480
600 1 -6.1824916250 5.5117534375 -2.4538211600
601 1 -5.0399762500 5.9894028125 -3.2256049360
602 1 -5.0111393750 5.4179462500 -2.4435761280
603 1 -3.9099496875 5.7595140625 -3.2984728880
604 1 -3.8880734375 5.2385421875 -2.4137347200
605 1 -2.7617287500 5.6787412500 -3.2221078960
606 1 -2.7819521875 5.1062768750 -2.4232155840
607 1 -2.2521115625 2.4510806250 -4.0474611440
608 1 -6.6912775688 2.8291312500 -4.1096436960
609 1 -5.0723875000 2.5500343750 -6.4712679738
610 1 -3.8966868750 2.4010393750 -6.4713732995
611 1 -2.7609628125 2.3904103125 -6.4755092461
612 1 -4.9595393750 4.8517437500 -6.4599017002
613 1 -6.1021246250 6.1512171875 -6.4392834114
614 1 -5.0798453125 5.9310303125 -6.4566174615
615 1 -0.5741575000 6.6322125000 -2.4111831760
616 1 1.1616584375 2.2988203125 -4.7969156720
617 1 -2.2251290625 3.5362259375 -4.0825740160
618 1 -2.2247796875 6.3601300000 -4.8584894800
619 1 -1.6588728125 6.4316040625 -5.6485252144
620 1 -1.0937721875 6.4773990625 -4.8135978480
621 1 -0.5955903125 6.6660615625 -5.7120146232
622 1 -0.0396675000 6.6679696875 -4.8761948640
623 1 -1.6538203125 6.4181128125 -2.4085150640
624 1 -1.0823906250 2.6198690625 -4.0155215120
625 1 0.1053096875 2.7471893750 -4.0611643600
626 1 0.5829187500 2.3294712500 -5.6565981960
627 1 1.6940118750 2.4987031250 -5.6575333304
628 1 1.1620078125 2.8510746875 -4.0930521840
629 1 -2.1879609375 2.9847912500 -4.8969310160
630 1 -1.6762206250 3.5800321875 -6.4716730476
631 1 -1.6177003125 3.0293096875 -5.6657164040
632 1 -1.0692756250 3.1794603125 -4.8338547760
633 1 -1.1556115625 3.7471409375 -4.0401303120
634 1 -0.5418268750 3.2380746875 -5.7303041424