ITEM: TIMESTEP
68000
ITEM: NUMBER OF ATOMS
2304
ITEM: BOX BOUNDS pp pp pp
-6.7187500000 6.7187500000
-6.7187500000 6.7187500000
-6.4760000000 6.4760000000
ITEM: ATOMS id type x y z
1 1 -5.0339965625 -6.4104319375 -6.4747123251
2 1 -5.6310703750 -6.5069978438 -4.0458421440
3 1 -4.4585087500 -6.3506310313 -4.0311416240
4 1 -2.7919631250 -6.0461036875 -6.3925864001
5 1 -3.3576550000 -6.1783354063 -4.0361670000
6 1 -2.7916137500 -6.6617908563 -5.6877011288
7 1 -6.1377581875 -6.0042929063 -5.6278836120
8 1 -5.5457032813 -5.9663427188 -4.8628802080
9 1 -5.0188659375 -5.3018059375 -6.4602876698
10 1 -5.5999719688 -5.3713987500 -4.1056156240
11 1 -4.9815096875 -5.8562022500 -5.6549804912
12 1 -4.4166509375 -5.7941814688 -4.8491769920
13 1 -3.9198934375 -5.1072443750 -6.4297664113
14 1 -4.5018984375 -5.2335971875 -4.0545458880
15 1 -3.8442537500 -5.6954843750 -5.7049739160
16 1 -3.3417181250 -5.6175912188 -4.8844193840
17 1 -2.6206484375 -5.4922972813 -5.3916248848
18 1 -6.1521739375 -4.3540456250 -6.4168998945
19 1 -6.6999631656 -4.3179659375 -4.0247044800
20 1 -6.1984862813 -4.9294125000 -5.6509873896
21 1 -5.6254629063 -4.8008828125 -4.8838494960
22 1 -5.6008239063 -4.2537750000 -4.0433553600
23 1 -5.0215534375 -4.7525481250 -5.6042721160
24 1 -4.4165165625 -4.6795556250 -4.8636702800
25 1 -4.5069375000 -4.0959650000 -4.1078433680
26 1 -3.8575300000 -4.5394428125 -5.6548820560
27 1 -3.2963128125 -4.5339065625 -4.8306297280
28 1 -3.9838290625 -3.9935443750 -3.2373653520
29 1 -2.7671171875 -4.4422493750 -5.7318739248
30 1 -6.7046910156 -3.7911621875 -4.8930842720
31 1 -6.1662040313 -3.7354906250 -5.7099060376
32 1 -5.6258391563 -3.6989003125 -4.8664679120
33 1 -5.0133565625 -3.0777921875 -6.4605445079
34 1 -5.5981404375 -3.1639937500 -3.9954588640
35 1 -5.0575121875 -3.6556046875 -5.6864149952
36 1 -4.5208721875 -3.5029681250 -4.8424419520
37 1 -4.4364443750 -2.9421540625 -4.0370477360
38 1 -3.9393509375 -3.4662703125 -5.6141972336
39 1 -3.3316534375 -3.4293709375 -4.8613648240
40 1 -2.7975531250 -2.7538140625 -6.4696779216
41 1 -3.3416643750 -2.8255971875 -4.1223366560
42 1 -2.7790362500 -3.3128140625 -5.6407112728
43 1 -6.1945692500 -6.5512529063 -3.2713254960
44 1 -5.0394656250 -6.4307037500 -3.2863239120
45 1 -3.8912446875 -6.2610647188 -3.2164219680
46 1 -2.7717128125 -6.1311012500 -3.2206702240
47 1 -6.1413083750 -5.4841904375 -3.2214343920
48 1 -6.1507656875 -6.0375950625 -2.3854993600
49 1 -5.0673887500 -5.3064150000 -3.2489185360
50 1 -5.0368050000 -5.8700858750 -2.4541320080
51 1 -3.9239784375 -5.1080506250 -3.2752499520
52 1 -3.9602328125 -5.6790153750 -2.4767332480
53 1 -2.8220631250 -4.4171884375 -2.4534066960
54 1 -2.7312256250 -4.9663387500 -3.2361996720
55 1 -6.1433172813 -4.3748065625 -3.2091818000
56 1 -6.1860297188 -4.9260800000 -2.4110666080
57 1 -5.0376381250 -4.2157468750 -3.2201780480
58 1 -5.0126578125 -4.7666843750 -2.3901102720
59 1 -3.8919300000 -4.5584434375 -2.4496894720
60 1 -3.4086100000 -3.9730521875 -4.0472150560
61 1 -6.1828369688 -3.1806025000 -3.2448645600
62 1 -6.1518030625 -3.7674584375 -2.4813312080
63 1 -5.0104137500 -3.0999237500 -3.2516384560
64 1 -5.0593396875 -3.6533606250 -2.4056138160
65 1 -3.8607953125 -2.9312025000 -3.2262395840
66 1 -3.9016184375 -3.4587453125 -2.3749434800
67 1 -2.8354334375 -2.7212550000 -3.1878498560
68 1 -2.8408890625 -3.8707525000 -3.2732942000
69 1 -3.3359937500 -5.0905281250 -3.9918970640
70 1 -2.2891453125 -2.6956431250 -4.0570974320
71 1 -6.7049597656 -2.6995937500 -4.8148153360
72 1 -6.1668167813 -2.5860334375 -5.6704762640
73 1 -5.6085477813 -2.6293962500 -4.8335827840
74 1 -5.0802484375 -2.5103131250 -5.6954865760
75 1 -4.5192731250 -2.4038209375 -4.8778656720
76 1 -3.9342715625 -2.3848875000 -5.6757852888
77 1 -6.1397644063 -2.6320434375 -2.4317120960
78 1 -5.0310806250 -2.5409640625 -2.4801266720
79 1 -3.9789378125 -2.3507831250 -2.4292382640
80 1 -2.8482528125 -5.5585549063 -2.4580176080
81 1 -2.7515968750 -3.3174634375 -2.4423974960
82 1 -2.2444521875 -6.4707165938 -4.8477134160
83 1 -2.2726440625 -5.8910537500 -4.1567112640
84 1 -2.2552828125 -3.7674987500 -3.9925058080
85 1 -6.6782693969 -5.4492354688 -4.0795691520
86 1 -2.7835378125 -6.7010297000 -2.4137994800
87 1 -2.7967737500 -5.0556578125 -6.4591253573
88 1 -5.0312821875 -4.2372871875 -6.4737039212
89 1 -2.8440871875 -3.8638321875 -6.4655526837
90 1 -6.1737908438 -3.1634025000 -6.4718902009
91 1 -2.2356371875 -4.3689746875 -4.8014229680
92 1 -1.6776987500 -4.7972009375 -3.2304360320
93 1 -1.6590206250 -6.4913216563 -5.6690515440
94 1 -1.1313971875 -6.4076073750 -4.8431284080
95 1 -1.1924840625 -5.8262070625 -4.0783128080
96 1 -0.5580728125 -6.2949460313 -5.6673263376
97 1 -0.0153456250 -6.3455180625 -4.8490992800
98 1 -0.0711112500 -5.7632537188 -4.0768751360
99 1 0.5531546875 -6.2744525000 -5.6791346760
100 1 1.0794612500 -6.2941720313 -4.8268995520
101 1 1.7019400000 -5.8845620938 -6.4123519292
102 1 1.1213190625 -5.7267668750 -4.0147702960
103 1 1.6326696875 -6.4597085938 -5.6504110256
104 1 -2.1960637500 -4.9551990625 -4.1512714240
105 1 -1.7402906250 -5.3570340625 -5.5372390400
106 1 -1.1440418750 -5.2617487500 -4.8962445600
107 1 -0.5393678125 -4.6353328125 -6.4697368014
108 1 -1.0804421875 -4.7081775000 -4.0532118320
109 1 -0.5264275000 -5.2117746875 -5.6513448648
110 1 0.0130612500 -5.1781809375 -4.8156442640
111 1 0.0140287500 -4.5712225000 -4.0819523200
112 1 0.5327700000 -5.1917259375 -5.6810761808
113 1 1.1036890625 -5.2170825000 -4.8558472720
114 1 1.6740034375 -4.6524925000 -6.3083972344
115 1 1.1020900000 -4.6247037500 -4.0227746320
116 1 1.6705500000 -5.2554868750 -5.6985134584
117 1 -1.6964978125 -4.2441134375 -5.7188118328
118 1 -1.1503978125 -4.1352696875 -4.8470399120
119 1 -1.0723528125 -3.5809862500 -4.0498054560
120 1 -0.5908737500 -4.1042693750 -5.6215280656
121 1 0.0161250000 -4.0344078125 -4.9103492880
122 1 0.0469506250 -3.4983321875 -4.0656068960
123 1 0.6281090625 -4.0694528125 -5.6248683864
124 1 1.2100065625 -4.1470946875 -4.9543083760
125 1 1.0998190625 -3.5549981250 -4.0834547520
126 1 1.6656721875 -3.7216903125 -6.3929805294
127 1 -2.1835803125 -3.2787768750 -4.8716746160
128 1 -1.7311128125 -2.5284940625 -6.4531522834
129 1 -1.6549356250 -3.1216790625 -5.7177135032
130 1 -1.1249068750 -3.0124053125 -4.8407581920
131 1 -1.1671409375 -2.4790306250 -3.9897988400
132 1 -0.5826768750 -2.9812571875 -5.7028433120
133 1 0.5268440625 -2.9324253125 -5.6169573048
134 1 -0.0357034375 -2.9145131250 -4.8451748240
135 1 1.1231062500 -2.9576071875 -4.8285056000
136 1 1.1299325000 -2.4199996875 -4.0412312320
137 1 1.6782496875 -2.6103956250 -6.4039730214
138 1 1.6449784375 -2.5376450000 -3.1882254640
139 1 1.6512940625 -3.2613753125 -5.6343129848
140 1 -1.7210346875 -5.9415075313 -3.2257344560
141 1 -1.6767043750 -6.4814356875 -2.3861728640
142 1 -0.6336990625 -5.7620053750 -3.2628419360
143 1 -0.5321653125 -6.2856217500 -2.4307536480
144 1 0.4862628125 -5.7673870938 -3.2995479040
145 1 0.5846118750 -6.2971309688 -2.4130612160
146 1 1.6526243750 -5.9154817813 -3.2164996800
147 1 1.6940387500 -6.4909695938 -2.4474487760
148 1 -1.6833290625 -5.3737234375 -2.4303262320
149 1 -0.5513003125 -4.6717215625 -3.2373653520
150 1 -0.5717387500 -5.2099068750 -2.4044740400
151 1 0.5463956250 -4.6427906250 -3.2347749520
152 1 0.5527650000 -5.2190846875 -2.4565540320
153 1 1.7122331250 -4.7469850000 -3.2722580400
154 1 1.6471015625 -5.3079200000 -2.4932081920
155 1 -1.6521137500 -3.7358803125 -3.2841997840
156 1 -1.6796471875 -4.2439925000 -2.4027255200
157 1 -0.5068221875 -3.5310525000 -3.2453178800
158 1 -0.5643078125 -4.0916246875 -2.4389263600
159 1 0.5829859375 -3.4546065625 -3.1981726000
160 1 0.5549956250 -4.0623443750 -2.4660867040
161 1 1.6643418750 -3.6492756250 -3.2485299760
162 1 1.6708590625 -4.2107884375 -2.4043574720
163 1 -1.6816493750 -3.1575034375 -2.4963166720
164 1 0.0151440625 -2.3418740625 -4.0700753360
165 1 -0.6380528125 -2.9868740625 -2.4151982960
166 1 0.5558556250 -2.3894696875 -3.2223410320
167 1 0.5284565625 -2.9191625000 -2.3575359920
168 1 2.2325600000 -6.5063004375 -4.9037955760
169 1 2.2126321875 -5.4680399063 -4.8506535200
170 1 -1.7325909375 -2.5673015625 -3.2281046720
171 1 -0.5262931250 -2.4313678125 -3.2688775680
172 1 1.7055950000 -3.1159009375 -2.4069349200
173 1 0.5433318750 -3.4975125000 -6.4663627795
174 1 2.2260696875 -5.9783652500 -3.9971426240
175 1 2.1418031250 -4.2996371875 -4.9389991120
176 1 2.2293484375 -3.7461196875 -4.0719922320
177 1 2.2283675000 -2.6636887500 -3.9813929920
178 1 -1.7240178125 -5.8937667813 -6.4519913957
179 1 -1.6268109375 -4.8310500000 -6.4702202089
180 1 0.5607200000 -4.5909218750 -6.4695462256
181 1 -0.5008962500 -3.5570540625 -6.4688939759
182 1 6.6665453125 -6.6075220344 -4.0632755360
183 1 6.7156728125 -6.0305793438 -4.8325725280
184 1 6.6607268750 -4.8735796875 -4.8546297840
185 1 6.6756693750 -3.2578546875 -4.0199381440
186 1 2.8137453125 -6.6248908094 -5.6713544096
187 1 3.3625596875 -6.1881501563 -4.0738961760
188 1 5.0596084375 -6.4362520938 -6.4524006789
189 1 4.5018043750 -6.2719813438 -4.0861876240
190 1 6.1417571875 -6.5702347188 -6.4372487817
191 1 5.5805131250 -6.4545055938 -4.0348718000
192 1 2.2588571875 -4.8608678125 -4.0912907120
193 1 2.8253956250 -5.4593431563 -5.6647255760
194 1 3.3195731250 -5.6006169688 -4.8146599120
195 1 3.3548600000 -4.9846809375 -4.1119491520
196 1 3.8945906250 -5.6839066250 -5.6263759992
197 1 4.4870365625 -5.7070513750 -4.8797307600
198 1 4.9877715625 -5.2890537500 -6.4337188436
199 1 4.4242565625 -5.1793903125 -4.0165835760
200 1 5.0548381250 -5.8674091250 -5.6751402792
201 1 5.6198043750 -5.9091957188 -4.9004669120
202 1 5.5885084375 -5.3939737500 -3.9997977840
203 1 6.2106512500 -5.9618855000 -5.6983049312
204 1 2.7737821875 -3.8462021875 -6.4653874680
205 1 2.6983843750 -4.3892518750 -5.6288420600
206 1 3.3428603125 -4.4220796875 -4.8982650720
207 1 3.8453287500 -3.9945387500 -6.4407952983
208 1 3.2795428125 -3.9005568750 -4.0289915920
209 1 3.8979231250 -4.5579865625 -5.6474592648
210 1 4.5027987500 -4.6418365625 -4.8774900640
211 1 4.4450040625 -4.1041081250 -4.0240309760
212 1 5.0576868750 -4.6828746875 -5.7088802392
213 1 5.5677878125 -4.8410743750 -4.8030031120
214 1 5.6197640625 -4.2318718750 -4.0806441680
215 1 6.1153121875 -4.8575621875 -5.6859733320
216 1 2.2621896875 -3.1585784375 -4.8680998640
217 1 2.7815087500 -2.7017168750 -6.4541546387
218 1 2.8070534375 -3.2666562500 -5.6760948416
219 1 3.3673434375 -3.3485981250 -4.8594867840
220 1 3.3815468750 -2.8084643750 -4.0218291360
221 1 3.9192753125 -3.3903618750 -5.7067276168
222 1 4.4329103125 -3.5365215625 -4.8061893040
223 1 5.0860400000 -3.0430428125 -6.4728424708
224 1 4.5205900000 -2.9287300000 -4.0981034640
225 1 4.9754628125 -3.6062621875 -5.6543937656
226 1 5.5618350000 -3.6684375000 -4.8516249200
227 1 6.1303218750 -3.2132825000 -6.4519834950
228 1 5.5852162500 -3.0893753125 -4.0738443680
229 1 6.1117646875 -3.7578775000 -5.6239190048
230 1 2.8321950000 -6.0238726875 -3.2540993360
231 1 2.7842768750 -6.6022238969 -2.4885454720
232 1 3.9343521875 -6.2231427500 -3.2627771760
233 1 5.0139343750 -6.4393037500 -3.2007111920
234 1 6.1367046875 -6.5494536250 -3.2065395920
235 1 2.7928231250 -4.9528071875 -3.2451754080
236 1 2.7599550000 -5.4969144063 -2.3791528800
237 1 3.8451675000 -5.1387150000 -3.2129378800
238 1 3.9357228125 -5.6877940938 -2.3882581360
239 1 5.0138000000 -5.2471153125 -3.2460302400
240 1 5.0447868750 -5.8242277188 -2.4898018160
241 1 6.2068887500 -5.4200411563 -3.2770761840
242 1 6.1320150000 -5.9589400000 -2.4387450320
243 1 2.7554265625 -3.8315687500 -3.1924348640
244 1 2.8253687500 -4.4098918750 -2.4107428080
245 1 3.8873478125 -3.9636996875 -3.2576352320
246 1 3.9559462500 -4.5438637500 -2.4836107600
247 1 5.0605893750 -4.1275028125 -3.2856245040
248 1 5.0134103125 -4.6795287500 -2.4509328640
249 1 6.1554768750 -4.3315243750 -3.2282730480
250 1 6.1075184375 -4.8783096875 -2.4180865920
251 1 2.8244684375 -2.6500228125 -3.2512628480
252 1 2.8049840625 -3.2314634375 -2.4812664480
253 1 3.9751618750 -2.8722790625 -3.2639817120
254 1 3.8742462500 -3.4070378125 -2.4275933600
255 1 5.0284334375 -3.0782087500 -3.1979394640
256 1 5.0038293750 -3.6234084375 -2.3701900960
257 1 6.1106896875 -3.1887725000 -3.2070965280
258 1 6.1851334375 -3.7672434375 -2.4345356320
259 1 3.8565893750 -2.3089253125 -5.6332936624
260 1 4.4522737500 -2.3584828125 -4.8837847360
261 1 5.0317390625 -2.5107700000 -5.6243023840
262 1 5.6340212500 -2.5285881250 -4.9015548800
263 1 6.2064721875 -2.6308340625 -5.6783692128
264 1 3.8744075000 -2.3373993750 -2.3656439440
265 1 5.0612881250 -2.4917156250 -2.4281373440
266 1 6.1898231250 -2.6180818750 -2.4255080880
267 1 2.7629784375 -6.0297448750 -6.4232588084
268 1 3.9175284375 -5.1112353125 -6.4531702867
269 1 -3.4054925000 -2.2309475000 -4.8447862640
270 1 -5.5940057188 -2.0435481250 -4.0677569280
271 1 -3.9178912500 -1.7967818750 -6.4263378874
272 1 -4.4784903125 -1.8685246875 -3.9935419680
273 1 -3.3160928125 -1.6629309375 -4.0371254480
274 1 -2.8182603125 -2.2141909375 -5.6086576632
275 1 -6.7051265250 -0.9708593750 -4.0614622560
276 1 -6.1550992813 -1.5402331250 -5.6456900216
277 1 -5.5926498750 -1.4643650000 -4.8380771280
278 1 -5.6089052188 -0.8918603125 -4.0714093920
279 1 -5.0413603125 -1.3787412500 -5.6489357928
280 1 -4.4535503125 -1.3397725000 -4.8579973040
281 1 -4.4783156250 -0.7761768750 -4.0690909840
282 1 -3.9283187500 -1.1894337500 -5.7080098648
283 1 -3.3681228125 -1.1328753125 -4.8835516000
284 1 -3.3477381250 -0.5897853125 -3.9875840480
285 1 -2.7987893750 -1.1217087500 -5.7043379728
286 1 -6.1473109063 0.1726181250 -6.4461234921
287 1 -6.1348489688 -0.3937859375 -5.6555555600
288 1 -5.5572259375 -0.3239915625 -4.8820880240
289 1 -5.0681681250 0.2818381250 -6.4427478123
290 1 -5.6052058750 0.2121378125 -4.0358691040
291 1 -4.9825040625 -0.3032843750 -5.6912240728
292 1 -4.4532009375 -0.1879100000 -4.8196075760
293 1 -4.4931775000 0.3947265625 -4.0671093280
294 1 -3.9171925000 -0.0811490625 -5.6671825704
295 1 -3.3364640625 -0.0683028125 -4.8579973040
296 1 -3.3600200000 0.5131109375 -4.0875605360
297 1 -2.8067309375 0.0673084375 -5.6913199176
298 1 -6.1964693125 0.7603609375 -5.6680995720
299 1 -5.5922118125 0.7476356250 -4.9095203600
300 1 -4.9812409375 1.4396937500 -6.4443896078
301 1 -5.5561146563 1.2850818750 -4.0637547600
302 1 -5.0181940625 0.8526093750 -5.6729734096
303 1 -4.4460790625 0.9432184375 -4.9033811120
304 1 -3.9394987500 1.5810696875 -6.4214678058
305 1 -4.4771062500 1.4790521875 -4.0447671280
306 1 -3.8413512500 0.9837593750 -5.6718867368
307 1 -3.3240478125 1.1111871875 -4.8223404480
308 1 -2.7685550000 1.1860071875 -5.6616999888
309 1 -6.1683338750 -2.0683000000 -3.2494495680
310 1 -5.0704390625 -1.9350537500 -3.2290372160
311 1 -3.8738296875 -1.8179325000 -3.2625699440
312 1 -2.7406453125 -1.6643687500 -3.2363162400
313 1 -2.8121462500 -2.1616368750 -2.3315542800
314 1 -6.1505762188 -0.9857884375 -3.2304101280
315 1 -6.1494474688 -1.5252100000 -2.3975317680
316 1 -5.0535212500 -0.8270109375 -3.2483875040
317 1 -5.0162321875 -1.3831084375 -2.4293030240
318 1 -3.9487975000 -0.6326643750 -3.2334279440
319 1 -3.9232796875 -1.2413562500 -2.4994769600
320 1 -2.7497425000 -0.5370968750 -3.2608473280
321 1 -2.8736900000 -1.0832775000 -2.4406101200
322 1 -6.1589343438 0.1513196875 -3.2166551040
323 1 -6.1599408125 -0.4162131250 -2.4228011200
324 1 -5.0311478125 0.2596528125 -3.2276643040
325 1 -5.0249934375 -0.2836253125 -2.3996170400
326 1 -3.9254431250 0.4616587500 -3.2606271440
327 1 -3.8543856250 -0.0731000000 -2.4240315600
328 1 -6.1357775000 1.2732165625 -3.2388418800
329 1 -6.1597285000 0.7145659375 -2.4254821840
330 1 -5.0312956250 1.4367643750 -3.2104899520
331 1 -5.0169443750 0.8385940625 -2.4717078720
332 1 -2.7982384375 1.7424675000 -3.2508224800
333 1 -3.9020618750 1.0176487500 -2.4036580640
334 1 -2.8345868750 0.6494209375 -3.2427274800
335 1 -2.7428221875 1.1992834375 -2.4182290640
336 1 -2.2812306250 -0.9503671875 -4.8300727920
337 1 -2.2398431250 0.7011687500 -4.0049397280
338 1 -2.2452450000 1.8172875000 -4.0769010400
339 1 -6.7181865482 1.8391100000 -4.8544873120
340 1 -6.1520946563 1.8320553125 -5.7070734352
341 1 -5.6371159063 1.8664687500 -4.8224699680
342 1 -5.0870209375 2.0029937500 -5.6452095024
343 1 -4.4818362500 2.0164984375 -4.9005446240
344 1 -3.9050718750 2.1581834375 -5.6610329608
345 1 -3.3189415625 2.2327615625 -4.9133800560
346 1 -3.3714821875 1.6929503125 -4.0658529840
347 1 -6.1651841250 1.8457615625 -2.4520855920
348 1 -5.0522984375 2.0014484375 -2.4262593040
349 1 -3.9011615625 1.5523537500 -3.2373135440
350 1 -3.9242337500 2.1354337500 -2.4676279920
351 1 -2.7644296875 0.0557521875 -2.5067300800
352 1 -6.6930255188 0.1092737500 -4.0860710560
353 1 -6.6872717156 1.2673175000 -4.0490024320
354 1 -6.1841269688 -0.9637643750 -6.4425061280
355 1 -2.7876362500 -0.5086093750 -6.4407541110
356 1 -2.2209768750 -1.5544903125 -4.1254321840
357 1 1.6741378125 -1.9426325000 -2.4745832160
358 1 -1.6476121875 0.7697268750 -3.2510038080
359 1 -2.2158168750 -2.1492878125 -4.8740707360
360 1 -1.6708187500 -1.9568493750 -5.6605032240
361 1 -1.1324453125 -1.4130203125 -4.0625761280
362 1 -0.5046318750 -1.8579493750 -5.6945656888
363 1 -0.5911693750 -1.3037868750 -3.2230792960
364 1 -1.0701221875 -1.9516087500 -4.8992235200
365 1 0.0192425000 -1.7485546875 -4.8125098800
366 1 -0.0232334375 -1.1925781250 -4.0002122480
367 1 0.5588118750 -1.8641843750 -5.6678547792
368 1 1.1295428125 -1.8372421875 -4.8524149920
369 1 1.1005850000 -1.3295331250 -3.9696325760
370 1 1.6638581250 -2.0305003125 -5.6918133888
371 1 -2.1955531250 -0.3676096875 -4.0505178160
372 1 -1.7120315625 -0.8875871875 -5.6320800600
373 1 -1.1230928125 -0.8312303125 -4.8505110480
374 1 -0.5771675000 -0.1297793750 -3.2449552240
375 1 -0.5709728125 -0.7239318750 -5.6405778672
376 1 0.0325456250 -0.6738100000 -4.9067097760
377 1 0.5812121875 -0.7183150000 -5.7219993200
378 1 0.0296028125 -0.1652812500 -4.0135398560
379 1 0.5356993750 -1.3094978125 -6.4724523436
380 1 1.1150168750 -0.7924765625 -4.8487236720
381 1 1.1047371875 -0.2316490625 -4.0260773920
382 1 1.6739765625 -0.8538187500 -5.7002360744
383 1 -2.2395609375 0.1689900000 -4.8926050480
384 1 -1.6998571875 0.7820759375 -6.4561656958
385 1 -1.6546937500 0.1886759375 -5.6892411216
386 1 -1.0801062500 -0.2494134375 -4.1192411280
387 1 -1.1354553125 0.3644653125 -4.8364969840
388 1 -0.5696693750 0.3859653125 -5.6723219240
389 1 -0.0400168750 0.4072906250 -4.8251639840
390 1 0.0756262500 0.9951812500 -4.0811752000
391 1 0.5289940625 0.4501696875 -5.6360718664
392 1 1.1084996875 0.3016718750 -4.8589039440
393 1 1.6771209375 0.2452612500 -5.6157605400
394 1 1.1145734375 0.9071925000 -4.0993209520
395 1 -2.1986168750 1.2448634375 -4.8559120320
396 1 -1.6651750000 1.3653843750 -5.7051008456
397 1 -1.0998862500 0.9232771875 -4.0282533280
398 1 -0.5075612500 2.1121062500 -6.4590445368
399 1 -1.1182821875 1.4632362500 -4.8691878320
400 1 -0.5686078125 1.5065587500 -5.7079904368
401 1 -0.0492350000 1.5673634375 -4.8480631200
402 1 0.5771809375 2.0615678125 -6.4512001580
403 1 0.0088150000 2.1253153125 -4.0432258400
404 1 0.5457103125 1.5227240625 -5.5995964440
405 1 1.1604356250 1.4743625000 -4.8904032080
406 1 1.7292987500 1.3680718750 -5.6401685840
407 1 1.6496009375 0.8128881250 -6.4496003270
408 1 -1.7127975000 -1.4004428125 -3.2327026320
409 1 -0.5186471875 -0.7398821875 -2.4722648080
410 1 0.5553450000 -1.2601150000 -3.2049335440
411 1 0.5560168750 -1.8021434375 -2.4101729200
412 1 1.7270009375 -1.3471631250 -3.2394117680
413 1 -1.7006903125 -0.8718518750 -2.3632996320
414 1 -0.5204343750 0.3968631250 -2.3754227040
415 1 -0.5026834375 0.9275771875 -3.2878004400
416 1 0.5734856250 -0.0225078125 -3.1351352160
417 1 1.7268531250 -0.2882746875 -3.2860778240
418 1 -1.6422371875 1.3569993750 -2.5017047040
419 1 -1.6102425000 -0.3549246875 -3.2603162960
420 1 -0.5449981250 2.0306346875 -3.2422871120
421 1 -1.7000453125 0.2128096875 -2.4472544960
422 1 -0.6003875000 1.4830431250 -2.4347687680
423 1 0.5687421875 0.9072865625 -3.1290995840
424 1 1.6369159375 0.8003778125 -3.2127954080
425 1 1.6052437500 0.2300634375 -2.3883747040
426 1 -1.7113462500 1.9623721875 -3.2492811920
427 1 0.5637971875 2.0211478125 -3.1923182960
428 1 1.0762362500 1.9950656250 -4.0341723920
429 1 1.7309650000 1.3677493750 -2.4311551600
430 1 2.2265265625 -2.1240118750 -4.8752364160
431 1 1.6572200000 1.9158918750 -3.2455380640
432 1 2.2301546875 1.8703925000 -4.0115970560
433 1 -1.6315812500 -1.9822865625 -2.4606857200
434 1 -0.5645900000 -1.9031665625 -2.4386025600
435 1 0.5575756250 -0.6072540625 -2.4936874160
436 1 0.5564334375 1.4141221875 -2.3867427520
437 1 1.6166790625 -0.8422356250 -2.3893720080
438 1 -1.1222193750 2.0228275000 -4.0239532640
439 1 0.5637837500 -0.1122703125 -6.4385639278
440 1 2.1923146875 -0.9935956250 -4.8187268400
441 1 2.1725346875 0.7773056250 -4.0698551520
442 1 1.6991987500 -1.4239450000 -6.4563016918
443 1 0.5997290625 0.9911768750 -6.4748577761
444 1 -0.6001456250 -1.2561778125 -6.4615986712
445 1 3.3130693750 -2.2332050000 -4.8050365760
446 1 6.7120984375 -2.1030896875 -4.0537428640
447 1 6.7028668750 -1.5516012500 -4.8475838960
448 1 6.7179437500 -0.4369337500 -4.9075257520
449 1 2.2837165625 0.2143281250 -4.8777879600
450 1 2.2520040625 -1.5707900000 -4.0425652880
451 1 6.7134556250 0.7131146875 -4.8347355120
452 1 2.7917346875 -2.1055218750 -5.6958544128
453 1 3.3763062500 -1.6288534375 -4.1028309440
454 1 4.9924478125 -1.9338443750 -6.4220927398
455 1 4.4444396875 -1.8078275000 -4.0552841520
456 1 5.5488678125 -2.0130584375 -4.0029062640
457 1 2.7522150000 -0.4920140625 -3.1943906160
458 1 2.7512878125 -1.0220562500 -5.6156284296
459 1 3.3712940625 -1.0649218750 -4.8974490960
460 1 3.2996856250 -0.5214690625 -4.0485232080
461 1 3.9487706250 -1.2042553125 -5.6269938096
462 1 4.5451134375 -1.2549818750 -4.8723092640
463 1 4.4208837500 -0.7261490625 -4.0000309200
464 1 5.0855428125 -1.3367893750 -5.7008681320
465 1 5.6146309375 -1.4647681250 -4.8309794320
466 1 5.6227471875 -0.9089528125 -4.0197050080
467 1 6.1643053125 -1.4979721875 -5.6992232280
468 1 2.2489134375 -0.3750675000 -4.1301855680
469 1 2.7313465625 0.6587600000 -6.4672194377
470 1 2.8450950000 0.0836215625 -5.6445644928
471 1 3.4350818750 0.0311481250 -4.8621808000
472 1 3.3064312500 0.5707578125 -3.9941507120
473 1 3.9651509375 -0.0563165625 -5.7222324560
474 1 4.4863512500 -0.1640853125 -4.8033010080
475 1 4.5020193750 0.4092256250 -4.0107163200
476 1 5.0070946875 -0.2186818750 -5.6972286200
477 1 5.5527646875 -0.3441209375 -4.8267829840
478 1 5.6414521875 0.2211140625 -4.0661120240
479 1 6.1034737500 -0.3776878125 -5.6230382688
480 1 2.3143943750 1.3450803125 -4.8720761280
481 1 2.8313887500 1.2383865625 -5.7356908792
482 1 3.3588106250 1.1074246875 -4.8356421520
483 1 3.9742212500 1.6227796875 -6.4577302974
484 1 3.4145762500 1.6752800000 -4.0226192080
485 1 3.8938246875 1.0690740625 -5.6939452880
486 1 4.4426256250 0.9520468750 -4.8586190000
487 1 4.5010518750 1.5137209375 -4.0733910480
488 1 5.0179253125 0.8784900000 -5.6354216760
489 1 5.5936818750 0.8067203125 -4.8472082880
490 1 5.5963693750 1.3676015625 -4.0588848080
491 1 6.1478040625 0.7114350000 -5.6639108952
492 1 2.8380537500 -1.5617062500 -3.2496827040
493 1 2.7398525000 -2.1125631250 -2.4037357760
494 1 3.8887721875 -1.7981793750 -3.1967996880
495 1 4.9855812500 -1.9226240625 -3.2065654960
496 1 6.1495643750 -2.0719281250 -3.2559255680
497 1 2.8151965625 0.0832721875 -2.4235652880
498 1 2.7987356250 -1.0502615625 -2.3586369120
499 1 3.8539018750 -0.6377168750 -3.2175099360
500 1 3.9732671875 -1.2087837500 -2.4384471360
501 1 5.0334321875 -0.7706540625 -3.2748484400
502 1 5.0723875000 -1.3374478125 -2.4633408800
503 1 6.1933975000 -0.9497893750 -3.2231829120
504 1 6.1474681250 -1.5175237500 -2.4352609440
505 1 2.8321009375 1.7813421875 -3.2803400880
506 1 2.7205293750 0.6394637500 -3.2406163040
507 1 3.9116965625 0.5007081250 -3.2672585680
508 1 3.9395525000 -0.0534678125 -2.4636517280
509 1 5.0869134375 0.3313150000 -3.2419633120
510 1 5.0152512500 -0.2363118750 -2.4383823760
511 1 6.2003178125 0.1704815625 -3.2365234720
512 1 6.1288437500 -0.3784671875 -2.4268680480
513 1 3.9742481250 1.6482437500 -3.2149195360
514 1 3.8912043750 1.0589556250 -2.4639237200
515 1 5.0601593750 1.4526743750 -3.2299438560
516 1 5.0141628125 0.8864853125 -2.4312199200
517 1 6.1773262500 1.2390046875 -3.2730481120
518 1 6.1231596875 0.7244828125 -2.3909521520
519 1 3.9076518750 2.1917637500 -5.6160519600
520 1 4.4823065625 2.0850028125 -4.8620383280
521 1 5.0510621875 1.9948775000 -5.6478646624
522 1 5.6270740625 1.9331187500 -4.8657166960
523 1 6.1846496875 1.8120065625 -5.6994434120
524 1 5.0323706250 1.9847725000 -2.3700217200
525 1 6.1733621875 1.7824037500 -2.4351702800
526 1 2.8175212500 1.2176659375 -2.4691692800
527 1 3.3041737500 2.2072034375 -4.8911932800
528 1 3.9012825000 2.2232209375 -2.4276840240
529 1 3.9508803125 -1.7582565625 -6.4635640206
530 1 6.1096146875 -2.0667412500 -6.4720793001
531 1 2.8019068750 -0.4589981250 -6.4671763593
532 1 3.8482850000 -0.6642290625 -6.4474334574
533 1 5.0445450000 1.4418034375 -6.4554449170
534 1 -2.7232571875 2.2673093750 -5.6863580064
535 1 -6.6789745969 6.2843290625 -4.8894965680
536 1 -6.1182469375 6.3371115625 -5.6901892080
537 1 -5.5924214375 6.3518390625 -4.8166933760
538 1 -5.0523118750 6.4479171875 -5.7029119576
539 1 -4.5107268750 6.5263653125 -4.8514824480
540 1 -3.9437181250 6.6285171875 -5.6375600512
541 1 -3.3542687500 6.6819850000 -4.8888101120
542 1 -6.1619053750 6.3177615625 -2.4627062320
543 1 -5.0846021875 6.4782590625 -2.4407784960
544 1 -3.9273512500 6.6055793750 -2.4368151840
545 1 -3.9125834375 2.7278393750 -3.2167846240
546 1 -5.5704000625 2.4392153125 -4.0624077520
547 1 -3.8541706250 2.7248696875 -6.4653546476
548 1 -4.4168121875 2.5662265625 -4.0863041920
549 1 -2.7955106250 2.8803550000 -6.4108656872
550 1 -6.6824543719 2.9059265625 -4.8986795360
551 1 -6.1095837813 2.9490206250 -5.6724838240
552 1 -5.5722289063 3.0235718750 -4.8221073120
553 1 -5.6209855313 3.6024728125 -4.0407779120
554 1 -5.0268881250 3.0598531250 -5.6983347208
555 1 -4.4953409375 3.1699600000 -4.8024332240
556 1 -4.4690840625 3.7532415625 -4.0470078240
557 1 -3.9854953125 3.2835203125 -5.6796903168
558 1 -3.3877012500 3.2919187500 -4.8952084000
559 1 -3.3018356250 3.8591828125 -4.0878843360
560 1 -2.8276934375 3.4562996875 -5.6625263264
561 1 -6.6709697438 4.6358703125 -4.0626797440
562 1 -6.1835357188 4.0682837500 -5.6314311648
563 1 -5.5722396563 4.1246406250 -4.9128231200
564 1 -5.5844355313 4.6748659375 -4.0613586400
565 1 -4.9922865625 4.1844643750 -5.6707767504
566 1 -4.4497475000 4.3164743750 -4.8480890240
567 1 -4.5227534375 4.8773018750 -4.0340428720
568 1 -3.8937440625 4.3497321875 -5.6932419944
569 1 -3.3744250000 4.4512256250 -4.8062411120
570 1 -3.3764003125 5.0505650000 -4.0559576560
571 1 -2.8460893750 4.5839881250 -5.6628812112
572 1 -6.1915377500 5.7613684375 -6.4665103545
573 1 -6.1920591250 5.1817553125 -5.6903640600
574 1 -5.6215767813 5.2388378125 -4.8762596240
575 1 -5.5773647188 5.7805168750 -4.0402080240
576 1 -5.0617450000 5.3542928125 -5.6433483000
577 1 -4.4545850000 5.4013106250 -4.9069040560
578 1 -3.9259806250 6.0714118750 -6.4382353355
579 1 -4.4636821875 5.9565884375 -4.0694795440
580 1 -3.8809918750 5.4941100000 -5.6638008032
581 1 -3.3201375000 5.5935878125 -4.8593313600
582 1 -2.8495159375 6.2191437500 -6.4711072266
583 1 -3.4055865625 6.1766543750 -4.0469171600
584 1 -2.7613928125 5.6466256250 -5.6819348984
585 1 -6.1408111875 2.3906253125 -3.2886552720
586 1 -4.9981856250 2.5431543750 -3.2807156960
587 1 -3.3309412500 2.7712290625 -4.0332398480
588 1 -2.7743600000 2.8562212500 -3.2263820560
589 1 -6.1641601875 3.5044193750 -3.2415877040
590 1 -6.1329045625 2.9270906250 -2.4422420720
591 1 -5.0272643750 3.5997718750 -3.2648754000
592 1 -5.0646071875 3.0698640625 -2.4007309120
593 1 -3.8840421875 3.8177415625 -3.2856633600
594 1 -3.9262493750 3.2878740625 -2.4194465520
595 1 -2.7990581250 4.0411937500 -3.2271332720
596 1 -2.8020815625 3.4492718750 -2.4760726960
597 1 -6.1431318438 4.6061734375 -3.2024985680
598 1 -6.1466726250 4.0393259375 -2.4028420880
599 1 -5.0566118750 4.7478450000 -3.1870209280
600 1 -4.9940468750 4.1516231250 -2.4502205040
601 1 -3.9281709375 4.8894628125 -3.2666109680
602 1 -3.9175553125 4.3609390625 -2.4072069120
603 1 -2.7960212500 5.1316737500 -3.2865959040
604 1 -2.8059381250 4.5980975000 -2.4183715360
605 1 -6.1400264375 5.7500271875 -3.2625310880
606 1 -6.2052157813 5.1979206250 -2.4546630400
607 1 -5.0130340625 5.9015081250 -3.2265633840
608 1 -5.0382965625 5.3304143750 -2.4350537120
609 1 -3.9278887500 6.0263290625 -3.1925643840
610 1 -3.8746090625 5.4412468750 -2.4325021680
611 1 -2.8127375000 6.2010971875 -3.2664425920
612 1 -2.7801381250 5.6701681250 -2.3992414320
613 1 -2.2503781250 4.6017525000 -4.8797955200
614 1 -2.8227350000 2.2986187500 -2.4193947440
615 1 -2.2637618750 6.3719953125 -4.0702566640
616 1 -6.1716892188 3.5275856250 -6.4618938473
617 1 -2.7366812500 4.0292478125 -6.4684031469
618 1 -6.0940957188 4.6254696875 -6.4700136374
619 1 -5.0371946875 4.7774209375 -6.4292927566
620 1 -3.9674621875 4.9315221875 -6.4683417155
621 1 0.5959800000 6.5935393750 -3.2369120320
622 1 -2.2121350000 2.4103112500 -4.8323134880
623 1 -2.2281256250 3.5184078125 -4.9288188400
624 1 -2.2208828125 4.0615650000 -4.0411405680
625 1 1.1781865625 2.5726900000 -4.8195298640
626 1 -2.2342128125 2.9956353125 -4.0655680400
627 1 -1.6490500000 2.4633087500 -5.6749239808
628 1 -1.0894587500 2.5641840625 -4.8643955920
629 1 -1.1333456250 3.1380325000 -4.0939717760
630 1 -0.5225709375 2.6576553125 -5.6544572304
631 1 0.0616512500 2.6734712500 -4.8836940720
632 1 -0.0414950000 3.2009737500 -4.0301572720
633 1 0.6385365625 2.6542825000 -5.6721755664
634 1 1.7052187500 2.4923875000 -5.7203285120