ITEM: TIMESTEP
191000
ITEM: NUMBER OF ATOMS
2304
ITEM: BOX BOUNDS pp pp pp
-6.7187500000 6.7187500000
-6.7187500000 6.7187500000
-6.4760000000 6.4760000000
ITEM: ATOMS id type x y z
1 1 -6.1798041250 -6.3571643438 -6.4592256058
2 1 -5.6141888438 -6.3157741563 -4.0098744400
3 1 -3.8742865625 -5.5294062813 -5.6731340144
4 1 -4.5169484375 -6.0971366250 -4.0195236800
5 1 -3.3870831250 -4.8276637500 -4.0236683200
6 1 -3.3619953125 -6.5438743750 -4.8180144800
7 1 -6.1655765000 -5.8029252500 -5.6718297480
8 1 -5.0092178125 -5.6956630938 -5.6815657664
9 1 -6.1420178750 -3.5885515625 -5.7040245344
10 1 -5.6017228750 -4.6719096875 -4.8560026960
11 1 -4.4463612500 -5.5480225938 -4.8713249120
12 1 -4.5061984375 -5.0203440625 -4.0198474800
13 1 -3.8995087500 -3.8325631250 -3.1567132480
14 1 -3.3725034375 -5.9734135313 -4.0406354400
15 1 -2.7800037500 -5.3172590625 -5.6589904304
16 1 -6.1565088750 -4.7047912500 -5.6635158592
17 1 -4.4600003125 -4.4726450000 -4.8757026880
18 1 -5.5205845625 -4.1173440625 -4.0281238080
19 1 -3.8903712500 -4.3794962500 -5.6626558464
20 1 -3.3503584375 -5.3936324375 -4.8194651040
21 1 -4.4224425000 -3.9007450000 -4.0719922320
22 1 -3.3194925000 -4.2841437500 -4.8563653520
23 1 -3.9386387500 -4.9373540625 -3.2281953360
24 1 -2.7676143750 -4.2223312500 -5.6624408432
25 1 -3.8727950000 -4.4048662500 -2.3687265200
26 1 -5.6076125313 -3.5702496875 -4.8346059920
27 1 -6.7174591172 -3.1175268750 -4.1059005680
28 1 -5.6013143750 -2.9897093750 -4.0599598240
29 1 -4.9922059375 -2.8382284375 -6.4609702402
30 1 -5.0334859375 -2.8367771875 -3.2940692080
31 1 -5.0642443750 -3.4144687500 -5.6899884520
32 1 -4.5156718750 -3.3446071875 -4.8799120880
33 1 -4.4123375000 -2.8197115625 -3.9963396000
34 1 -3.9172328125 -3.2769762500 -5.6317899352
35 1 -3.3336556250 -3.1469953125 -4.8816606080
36 1 -3.8482178125 -2.7002253125 -3.2114613520
37 1 -2.7578184375 -3.0890796875 -5.6403628640
38 1 -6.1744721250 -6.3928624063 -3.1724110720
39 1 -5.0611671875 -6.2528221563 -3.1815163280
40 1 -3.9327262500 -6.0859069063 -3.2398521360
41 1 -3.8993878125 -6.6498520406 -2.4402474640
42 1 -2.7903506250 -4.7755665625 -3.2635931520
43 1 -2.7796006250 -5.8644716875 -3.2687091920
44 1 -6.1410570938 -5.2744606250 -3.2290113120
45 1 -6.1676781250 -5.8134857813 -2.4065463600
46 1 -5.5796396875 -5.7842417500 -4.8950141200
47 1 -4.9877984375 -5.6617387813 -2.4264276800
48 1 -5.5841614063 -5.2421031250 -4.0599727760
49 1 -6.1267649688 -4.1503196875 -3.3088603920
50 1 -6.1985910938 -4.6933962500 -2.4446381920
51 1 -4.9575237500 -3.9637131250 -3.2171343280
52 1 -5.0602265625 -5.0920465625 -3.1808039680
53 1 -2.7554803125 -4.2303803125 -2.4192522720
54 1 -3.3751237500 -3.7054175000 -4.0691816480
55 1 -6.1723785625 -3.0631184375 -3.2508742880
56 1 -6.1215995938 -3.6345615625 -2.4305982240
57 1 -5.0870209375 -3.3813587500 -2.4587817760
58 1 -3.9607703125 -3.2373625000 -2.3949025120
59 1 -2.7794931250 -2.5339496875 -3.1793533440
60 1 -2.8347884375 -3.6770509375 -3.2310318240
61 1 -2.2686665625 -6.3830113750 -4.8556270880
62 1 -2.2554171875 -5.2646915625 -4.8090128400
63 1 -2.8030087500 -5.3206990625 -2.4308443120
64 1 -6.0982492500 -2.5299856250 -5.6301294888
65 1 -5.5414650938 -2.4115878125 -4.8264332800
66 1 -5.0152646875 -2.2649578125 -5.6783536704
67 1 -4.4489278125 -2.2717034375 -4.8405250560
68 1 -2.7998240625 -2.5428184375 -6.4702718355
69 1 -6.0974550938 -2.5234953125 -2.3962624720
70 1 -4.9608428125 -2.2990084375 -2.4246532560
71 1 -3.3182428125 -2.5923759375 -4.0635345760
72 1 -2.8336059375 -6.4054452813 -5.6789235584
73 1 -2.8453368750 -6.4250761250 -2.4439387840
74 1 -3.8880062500 -5.5098721875 -2.4495210960
75 1 -5.0844275000 -4.5160346875 -2.4044869920
76 1 -2.7386028125 -3.1143153125 -2.4219592400
77 1 -5.0378934375 -4.5443340625 -5.6585928040
78 1 -3.9239515625 -4.9579671875 -6.4433095406
79 1 -2.2689084375 -3.5312137500 -4.0278518160
80 1 -2.2530387500 -2.4370653125 -4.0437309680
81 1 -6.6848277031 -5.4026946875 -4.0659047920
82 1 -6.7155388675 -5.9750972500 -4.8590334640
83 1 -6.7158250459 -4.2755437500 -4.0287973120
84 1 -6.6898275281 -3.7227115625 -4.8404602960
85 1 -6.6984955219 -6.5317309063 -4.0580817840
86 1 -6.7112936388 -4.8211062500 -4.8478429360
87 1 -6.7137100372 -2.5618996875 -4.9171231840
88 1 -4.4772943750 -6.6479173094 -4.8205401200
89 1 -3.9213715625 -6.6237706594 -5.6491870616
90 1 -5.0325318750 -5.1181018750 -6.4365474309
91 1 -5.0126981250 -3.9891637500 -6.4542629174
92 1 -3.9043865625 -3.8137909375 -6.4741765138
93 1 -3.8851171875 -2.7204353125 -6.4498403275
94 1 -5.0579690625 -6.2729905000 -6.4510690838
95 1 -2.8027803125 -3.6460103125 -6.4583474602
96 1 -2.2103612500 -4.0880368750 -4.8290495840
97 1 -2.1688259375 -2.9866725000 -4.8723481200
98 1 -2.2034140625 -5.8287548125 -4.0366073680
99 1 -1.6782631250 -4.6297428125 -3.2397744240
100 1 -1.1319615625 -6.2968810313 -4.8733454240
101 1 -2.2299934375 -4.6622078125 -4.0707876960
102 1 -1.6962559375 -6.2776895938 -5.6673315184
103 1 -1.1412871875 -5.1697421875 -4.8574274160
104 1 -1.0754971875 -5.7323058125 -4.0617083440
105 1 0.0316721875 -6.3508608125 -4.8746794800
106 1 0.0387940625 -5.2132125000 -4.9084712480
107 1 0.5369221875 -5.9306822813 -6.4133063621
108 1 -0.0293071875 -5.7662811875 -4.0529268880
109 1 1.0776337500 -6.0701944375 -4.0761757280
110 1 0.6582090625 -6.4882323750 -5.4983998776
111 1 0.5416253125 -5.8902340625 -3.2114224960
112 1 1.6003659375 -6.6159931688 -5.5574312080
113 1 -1.6295925000 -5.7173404688 -6.4564929928
114 1 -1.7137650000 -5.1565600000 -5.6601975568
115 1 -0.5836040625 -4.6364615625 -6.4091460502
116 1 -0.5291687500 -4.0227037500 -5.6934854920
117 1 -1.1026543750 -4.6078128125 -4.0544293200
118 1 -0.5673043750 -5.2086840625 -5.6219904520
119 1 -0.0154934375 -4.7284412500 -3.9890476240
120 1 0.6154240625 -5.3072346875 -5.6954399488
121 1 1.1272046875 -5.6186581563 -4.8541894160
122 1 1.1305103125 -4.9429843750 -4.1142157520
123 1 -1.7118837500 -3.5257850000 -6.4610500245
124 1 -1.6613318750 -4.0801221875 -5.6467728088
125 1 -1.0834656250 -4.0385465625 -4.8659757360
126 1 -1.6806012500 -3.5085984375 -3.2665980160
127 1 0.0054825000 -4.1681915625 -4.8499411600
128 1 1.1445928125 -3.7178875000 -4.0916533680
129 1 0.0404871875 -3.6034134375 -4.0782998560
130 1 0.5158925000 -4.7546309375 -6.4549606417
131 1 0.5853643750 -4.1629240625 -5.6782733680
132 1 1.1456812500 -3.1610240625 -4.8791479200
133 1 1.1104481250 -4.3549056250 -4.7970581440
134 1 -1.6833156250 -2.3648925000 -6.4742419344
135 1 -1.6134406250 -2.9357175000 -5.7066473144
136 1 -1.1047103125 -2.9470318750 -4.8284149360
137 1 -1.1112275000 -2.3608612500 -4.0447541760
138 1 -0.5307946875 -2.9306112500 -5.6729228968
139 1 -0.0163534375 -2.9932300000 -4.7997521600
140 1 0.5347453125 -3.1291637500 -5.6293925200
141 1 1.1524940625 -2.6262518750 -4.0001863440
142 1 1.6904643750 -2.7166996875 -6.4147986915
143 1 1.7393634375 -2.7203278125 -3.2428310960
144 1 1.6903568750 -3.3124781250 -5.6887321080
145 1 -1.6260315625 -5.7001095625 -3.2500842160
146 1 -0.5472825000 -5.7918057188 -3.1755713600
147 1 -0.6130590625 -6.3481330000 -2.3728970640
148 1 0.5819781250 -5.3088203125 -2.4610224720
149 1 0.5753265625 -6.4606102500 -2.4249641040
150 1 1.6713293750 -6.0239828750 -3.2513535120
151 1 1.7276728125 -6.6023456406 -2.4907991200
152 1 -1.6994271875 -5.1613975000 -2.3915349920
153 1 -0.5734990625 -4.6060390625 -3.2047263120
154 1 -0.5507762500 -4.0184575000 -2.4649728320
155 1 0.6096593750 -4.7511640625 -3.2804048480
156 1 1.6894028125 -4.9895721875 -3.2880076720
157 1 1.6656453125 -5.5052900000 -2.3816137600
158 1 -1.6472628125 -2.9479859375 -2.4585874960
159 1 -1.6644090625 -4.0434243750 -2.4364266240
160 1 -1.1055031250 -3.5069321875 -4.0114157280
161 1 -0.5043900000 -3.4523087500 -3.2566120240
162 1 0.5827171875 -3.6846431250 -3.2429994720
163 1 0.5561915625 -4.2359300000 -2.3963790400
164 1 1.6664784375 -3.8977887500 -3.2455769200
165 1 1.7047215625 -4.4398709375 -2.4140326160
166 1 -1.6767984375 -2.3613853125 -3.2511203760
167 1 0.0463190625 -2.4154040625 -4.0713316800
168 1 -0.5813868750 -2.9185443750 -2.3962624720
169 1 0.5700053125 -2.5842731250 -3.2304878400
170 1 0.5975790625 -3.1248906250 -2.4101211120
171 1 1.7056621875 -5.4731663125 -5.6961820984
172 1 2.2014656250 -5.6162730000 -4.7935999600
173 1 -0.5372715625 -2.3864865625 -3.2619093920
174 1 1.6851296875 -3.3108790625 -2.4773808480
175 1 -0.5284028125 -6.3281836875 -5.6428587144
176 1 -1.7482725000 -6.2575239375 -2.4382917120
177 1 -0.5291821875 -5.1909734375 -2.4523575840
178 1 1.6379237500 -4.4529590625 -5.6240044880
179 1 1.6410143750 -6.0871995938 -6.4494727498
180 1 -0.5040540625 -5.7618387500 -6.4414476906
181 1 1.7296346875 -3.8984740625 -6.4483504590
182 1 0.5959396875 -2.5861543750 -6.4542012659
183 1 2.2590856250 -6.1893219063 -4.0195625360
184 1 2.2572446875 -4.4414431250 -4.8732547600
185 1 2.2401387500 -3.3885209375 -4.8769978880
186 1 2.2770918750 -5.0071618750 -4.0909928160
187 1 2.2537375000 -2.2543421875 -4.8396572720
188 1 6.1454928125 -5.9453224375 -5.6448908832
189 1 6.1588631250 -4.8829590625 -5.6685425304
190 1 3.3759568750 -6.2812008125 -4.0858249680
191 1 4.4655634375 -6.4807853125 -4.0259478720
192 1 5.6074821875 -6.6315986750 -4.0650888160
193 1 3.3772334375 -4.6573837500 -4.8869968320
194 1 2.7387640625 -5.6888274375 -5.6470991992
195 1 3.3553034375 -5.1842681250 -4.0048102080
196 1 3.9052600000 -5.8594205313 -5.6690360016
197 1 4.4699978125 -5.9213150000 -4.8640458880
198 1 5.0569746875 -4.8892209375 -5.6479333080
199 1 4.4776034375 -5.3807270625 -4.0261162480
200 1 5.0551740625 -5.9942389688 -5.6579996024
201 1 5.5859956250 -6.0453511875 -4.8115643840
202 1 5.6226665625 -5.4424629688 -4.0822243120
203 1 2.8606959375 -3.9652046875 -3.2571560080
204 1 3.4003325000 -4.1064462500 -4.0572140000
205 1 3.3347037500 -5.7183523125 -4.8824765840
206 1 3.3529250000 -3.5281768750 -4.8176259200
207 1 3.9558253125 -4.6673006250 -5.6784287920
208 1 4.4856525000 -4.8298675000 -4.8361472800
209 1 4.4866603125 -4.2231643750 -4.0954483040
210 1 5.0444509375 -4.3396271875 -6.4739439218
211 1 5.6194684375 -4.8641331250 -4.8412633200
212 1 5.0731131250 -3.1899953125 -6.4252863145
213 1 5.5623993750 -4.2944906250 -4.0413866560
214 1 2.2515471875 -3.9092643750 -3.9968965360
215 1 2.8042450000 -3.9938534375 -6.4196970084
216 1 3.9184959375 -3.5914809375 -5.6193754432
217 1 3.4277315625 -2.3491706250 -4.8721149840
218 1 4.4625668750 -3.1359093750 -4.0038906160
219 1 4.5057684375 -2.5750684375 -4.8413280800
220 1 5.0572703125 -2.5847031250 -5.7155751280
221 1 5.6455640625 -3.7521531250 -4.8796789520
222 1 5.6308500000 -3.2137393750 -4.0215571440
223 1 6.1919596875 -3.7819171875 -5.7037965792
224 1 2.8191471875 -6.2126856875 -3.2377150560
225 1 3.8876300000 -6.4221131563 -3.2097516880
226 1 5.0565312500 -6.5467164063 -3.2651214880
227 1 6.1707956250 -6.5262336250 -3.2411861920
228 1 2.8299240625 -5.6838918438 -2.3895792400
229 1 3.9273915625 -5.2523021875 -3.2334020400
230 1 3.9715606250 -5.8347654063 -2.4659701360
231 1 5.0721993750 -5.4263003438 -3.2674398960
232 1 5.0245365625 -5.9957950313 -2.4409598240
233 1 6.1734562500 -5.4746471250 -3.2582439760
234 1 6.1244228125 -5.9961148438 -2.3729100160
235 1 2.8027131250 -4.5281956250 -2.4675632320
236 1 2.7744943750 -5.1272528125 -3.1961391360
237 1 3.9622887500 -4.1463153125 -3.2108526080
238 1 3.8908281250 -4.7121550000 -2.4027773280
239 1 5.0041921875 -4.3443571875 -3.2025892320
240 1 5.0775475000 -4.9126559375 -2.3909392000
241 1 6.1361268750 -4.3436987500 -3.2768689520
242 1 6.1867862500 -4.8955500000 -2.4666177360
243 1 3.3711328125 -2.9257065625 -4.0976760480
244 1 2.8335656250 -2.8704515625 -3.2139222320
245 1 6.2087162500 -3.2053275000 -3.2209551680
246 1 3.9582709375 -3.6005109375 -2.3782073840
247 1 3.8870253125 -3.0566146875 -3.2156578000
248 1 5.1067875000 -3.7506346875 -2.4656074800
249 1 5.0583050000 -3.1726206250 -3.2574539040
250 1 6.1986918750 -3.7892675000 -2.4443921040
251 1 2.2788790625 -2.8146053125 -4.0628740240
252 1 2.8157340625 -2.3407050000 -5.6279198776
253 1 4.5334631250 -3.6509015625 -4.8865176080
254 1 3.9532318750 -2.4981118750 -5.6912940136
255 1 5.5695078125 -2.6649250000 -4.8502520080
256 1 6.1534612500 -2.6883196875 -5.6544999720
257 1 2.7538946875 -3.4358209375 -2.4045906080
258 1 3.9872556250 -2.4605675000 -2.4780932080
259 1 5.0183284375 -2.6229596875 -2.4493397680
260 1 6.1393115625 -2.6510440625 -2.4167654880
261 1 2.8677371875 -2.3171490625 -2.3982700320
262 1 3.9185631250 -5.2766509375 -6.4029625063
263 1 2.7997568750 -4.5729156250 -5.6721457768
264 1 2.8365890625 -3.3953203125 -5.6764562024
265 1 5.0715678125 -3.7765690625 -5.6867582232
266 1 3.9313825000 -6.4317021563 -6.4544534414
267 1 5.0226284375 -6.5739703438 -6.4400487450
268 1 -3.9180659375 -2.1214318750 -5.7064789384
269 1 -3.9371875000 -2.0879187500 -2.4718114880
270 1 -5.6120186875 -1.8213859375 -4.1080246960
271 1 -3.8914193750 -1.5418187500 -6.4521834738
272 1 -4.4924250000 -1.7044393750 -4.0461659440
273 1 -3.3791818750 -2.0282696875 -4.8700297120
274 1 -2.7522418750 -1.4185296875 -6.4657692411
275 1 -3.3062431250 -1.4993562500 -3.9743600560
276 1 -6.7003059563 -1.4579418750 -4.9030702640
277 1 -6.1511513438 -0.8328831250 -6.4309206935
278 1 -6.7009298594 -0.9547746875 -4.0023752320
279 1 -6.1248380313 -1.4232193750 -5.7053702472
280 1 -5.5945647188 -1.2395556250 -4.8794846720
281 1 -5.5321287188 -0.7028887500 -4.0300277520
282 1 -4.9858634375 -1.2093481250 -5.6237130680
283 1 -4.4215287500 -1.1330634375 -4.8253971200
284 1 -4.4629296875 -0.5266021875 -4.1116124000
285 1 -3.8963375000 -0.9581878125 -5.6760171296
286 1 -3.3183503125 -0.9777662500 -4.8496562160
287 1 -3.3796790625 -0.4000209375 -4.0613974960
288 1 -2.7944625000 -0.8402871875 -5.7121791136
289 1 -6.6735522969 -0.4069546875 -4.8373518160
290 1 -6.1473606250 -0.2213425000 -5.7038859480
291 1 -5.5970708125 -0.1615456250 -4.8765575200
292 1 -5.0132221875 0.4959378125 -6.4116154785
293 1 -5.5950551875 0.3833584375 -4.0050303920
294 1 -5.0230315625 -0.1126734375 -5.7003565280
295 1 -4.5031884375 0.0549728125 -4.8716228080
296 1 -4.4220125000 0.5882534375 -4.0112991600
297 1 -3.8896187500 0.0890368750 -5.6135379768
298 1 -3.3170065625 0.1672431250 -4.8398386000
299 1 -3.3320162500 0.7586140625 -4.1042815680
300 1 -2.7783375000 0.3161171875 -5.6576524888
301 1 -6.7186807825 1.9246128125 -4.8630356320
302 1 -6.2087700000 1.3819931250 -3.2097775920
303 1 -6.1649261250 0.8545443750 -5.6077419568
304 1 -5.5600290000 0.9228203125 -4.8381936960
305 1 -5.6405680000 1.4965075000 -4.0728859200
306 1 -5.0458887500 1.0915415625 -5.6949982856
307 1 -4.4845371875 1.1274196875 -4.8570647600
308 1 -4.5135890625 1.6694078125 -3.9953682000
309 1 -3.9157412500 1.1915971875 -5.6900247176
310 1 -3.3961534375 1.3424600000 -4.8524538480
311 1 -2.7887650000 1.3870456250 -5.6213078816
312 1 -6.1291581875 -1.9746137500 -3.2047910720
313 1 -5.0720246875 -1.7458000000 -3.2506411520
314 1 -3.9262359375 -1.5453528125 -3.2883185200
315 1 -2.7213490625 -1.4030765625 -3.2253588480
316 1 -6.1036296250 -0.8122834375 -3.2756126080
317 1 -6.1581092813 -1.3829606250 -2.4520208320
318 1 -4.9595125000 -0.6640140625 -3.1997138880
319 1 -5.0188659375 -1.2127343750 -2.3748010080
320 1 -3.9343387500 -0.4500218750 -3.2098941600
321 1 -3.8505693750 -1.0191134375 -2.4018318320
322 1 -2.8292925000 -0.2546540625 -3.2635542960
323 1 -2.8003346875 -0.8128209375 -2.4679517920
324 1 -6.1298838125 -0.2948321875 -2.4415426640
325 1 -5.0106959375 0.4724221875 -3.2627771760
326 1 -5.0805843750 -0.0796843750 -2.4404546960
327 1 -3.8466993750 0.6298290625 -3.2161888320
328 1 -3.9167221875 0.0966828125 -2.3639342800
329 1 -6.1893340000 1.9872718750 -2.4498837520
330 1 -6.1916519688 0.3062540625 -3.2408882960
331 1 -5.1097437500 1.6225781250 -3.2371192640
332 1 -4.9922328125 1.0407746875 -2.4742853200
333 1 -2.7283768750 1.9445809375 -3.2219783760
334 1 -3.9608106250 1.2222481250 -2.4599086000
335 1 -2.8064621875 0.8608868750 -3.2053091520
336 1 -2.8283787500 1.3979165625 -2.3771323680
337 1 -2.7902968750 -1.9784434375 -5.6632218488
338 1 -2.2510231250 -0.7243350000 -4.8646287280
339 1 -6.7175274106 0.1923443750 -4.1141768960
340 1 -6.1488871250 1.9397300000 -5.6648304872
341 1 -5.6136056563 2.0825840625 -4.8380512240
342 1 -5.0243618750 2.1804628125 -5.6102883200
343 1 -4.4392662500 2.2028362500 -4.8350981680
344 1 -3.3145609375 1.8762781250 -3.9972721440
345 1 -6.1042625313 0.8359065625 -2.4004071120
346 1 -5.0180193750 2.1651709375 -2.4001869280
347 1 -3.9155800000 1.7815034375 -3.2814798640
348 1 -2.8371265625 -1.9520387500 -2.4111443200
349 1 -2.7163368750 0.2838134375 -2.4158199920
350 1 -2.2444790625 -1.8770171875 -4.8467938240
351 1 -2.2481609375 0.8919678125 -4.0433035520
352 1 -6.6774540094 -2.0296000000 -4.0530952640
353 1 -2.7664453125 -0.2428021875 -6.4580727482
354 1 -3.9110650000 1.7829009375 -6.4201068097
355 1 -2.7841290625 1.9228525000 -6.4739546979
356 1 1.6475450000 -2.1958218750 -2.3832198080
357 1 1.6869168750 -1.6210462500 -3.1843528160
358 1 -1.6822406250 1.0107687500 -3.2583346400
359 1 -2.1806509375 -1.2897850000 -4.0766420000
360 1 -1.6810178125 -1.8256053125 -5.6438715608
361 1 -1.1049656250 -1.2089718750 -4.0771989360
362 1 -0.5818168750 -1.8654071875 -5.6558936072
363 1 -0.5700187500 -1.2670218750 -3.2496308960
364 1 -1.1010284375 -1.8080290625 -4.8307333440
365 1 0.0203578125 -1.8524534375 -4.8818807920
366 1 0.0295759375 -1.3272084375 -4.0005878560
367 1 0.5764150000 -1.9967453125 -5.6864266520
368 1 1.1239662500 -2.0956050000 -4.8722574560
369 1 1.1689281250 -1.5249815625 -4.0729377280
370 1 1.7159418750 -2.1289837500 -5.6652035048
371 1 -1.6545862500 -0.1763134375 -6.4254987273
372 1 -2.2253171875 -0.1996812500 -3.9851749760
373 1 -1.6723237500 -0.7563162500 -5.6435503512
374 1 -1.0939334375 -0.6495553125 -4.8783578480
375 1 -0.5498893750 -0.1404084375 -6.4686403498
376 1 -0.5046721875 -0.1454071875 -3.2336610800
377 1 -0.5270456250 -0.7007253125 -5.6726962368
378 1 0.0222525000 -0.7992356250 -4.8618958560
379 1 0.6038678125 -0.8209371875 -5.6655169432
380 1 0.0312825000 -0.2059834375 -4.0864596160
381 1 0.5678284375 -1.4132621875 -6.4303008108
382 1 1.1421740625 -0.9506225000 -4.8420274880
383 1 1.6974787500 -0.5051021875 -6.4550869237
384 1 1.1035009375 -0.3610253125 -4.0692205040
385 1 1.7040496875 -1.0547228125 -5.6266428104
386 1 -2.1895331250 0.3267596875 -4.8652245200
387 1 -1.6687493750 1.0376706250 -6.4400067806
388 1 -1.6509715625 0.4375787500 -5.7286696000
389 1 -1.0727962500 -0.1049468750 -4.0447930320
390 1 -1.1341787500 0.4465146875 -4.8641754080
391 1 -0.5266693750 0.4157293750 -5.6359423464
392 1 0.0318871875 0.3673140625 -4.8418850160
393 1 0.5678956250 0.8000015625 -6.4476579155
394 1 -0.0079818750 0.9394425000 -4.0579263600
395 1 0.5912903125 0.2481100000 -5.6318870752
396 1 1.1981009375 0.1980553125 -4.8744592960
397 1 1.7284925000 0.0946134375 -5.7185657448
398 1 1.1281184375 0.7161112500 -3.9770799760
399 1 -2.2215950000 1.4436712500 -4.8399292640
400 1 -2.2126590625 2.0494337500 -4.1121304800
401 1 -1.6731568750 1.5854637500 -5.6403628640
402 1 -1.1004506250 1.0078528125 -4.0401044080
403 1 -1.0726350000 1.5499887500 -4.8618310960
404 1 -0.5301228125 1.4991009375 -5.6691266656
405 1 0.0557118750 1.5005925000 -4.8628802080
406 1 0.5746278125 1.9909806250 -6.4406410400
407 1 0.0168775000 2.0205431250 -3.9676768240
408 1 0.6027390625 1.4008325000 -5.7043716480
409 1 1.1160515625 1.2531409375 -4.8329351840
410 1 1.6997496875 1.2710531250 -5.6648900664
411 1 1.6923187500 0.6936437500 -6.4364199832
412 1 -1.6544115625 -1.2769118750 -3.1993253280
413 1 -0.5466509375 -0.7236765625 -2.4352479920
414 1 0.6187028125 -1.4159900000 -3.2558219520
415 1 0.5541490625 -1.9859146875 -2.4665400240
416 1 1.7561871875 -1.0318925000 -2.4211432640
417 1 -1.6854925000 -0.6736487500 -2.4304168960
418 1 -0.5615531250 0.3937859375 -2.3947988960
419 1 -0.5553450000 0.9470481250 -3.2096092160
420 1 0.5545521875 -0.3216265625 -3.1988720080
421 1 1.6332071875 -0.4829034375 -3.2288299840
422 1 -1.6260718750 1.5281662500 -2.3943196720
423 1 -1.6281815625 -0.1457296875 -3.2524932880
424 1 -0.5824618750 2.1095800000 -3.2480766560
425 1 -1.6703753125 0.4337490625 -2.4655297680
426 1 -0.5030328125 1.5438881250 -2.4630041280
427 1 0.5475646875 0.8157100000 -3.2382201840
428 1 1.7648543750 0.6908084375 -3.2948333760
429 1 1.7194759375 0.1333000000 -2.4983112800
430 1 -1.6944150000 2.0961559375 -3.1970846320
431 1 0.6464915625 1.9819640625 -3.2865829520
432 1 1.2067278125 1.8322300000 -4.0652571920
433 1 1.6365934375 1.2107053125 -2.4047848880
434 1 2.2125112500 -0.5728675000 -3.9767302720
435 1 1.7569934375 1.7707534375 -3.2072649040
436 1 -1.6319575000 -1.8409778125 -2.3958091520
437 1 -0.5029118750 -1.8309534375 -2.4344708720
438 1 0.5553181250 -0.8957437500 -2.3847610960
439 1 0.6380796875 0.2584971875 -2.4339009840
440 1 0.5785918750 1.4209484375 -2.4923274560
441 1 -1.1433162500 2.1114881250 -4.0504271520
442 1 -0.5236190625 -1.2928487500 -6.4323470973
443 1 2.2283540625 1.0999668750 -4.8206696400
444 1 2.2335140625 -1.6503803125 -4.0846204320
445 1 -0.5613650000 2.0688778125 -6.4180693306
446 1 6.7082553125 0.8093540625 -4.8121860800
447 1 2.3293100000 0.5354037500 -4.0406483920
448 1 2.2399103125 -0.0411859375 -4.8382325520
449 1 2.7427550000 -1.7712909375 -3.2176524080
450 1 3.3225696875 -0.1896568750 -4.8241796320
451 1 3.9309121875 -1.9128818750 -6.4444046322
452 1 4.5278731250 -2.0254478125 -4.0147702960
453 1 5.6691200000 -2.0909556250 -4.0735205680
454 1 2.3166518750 -1.0951428125 -4.8786816480
455 1 2.8213643750 -0.6035587500 -6.4359464581
456 1 2.8439528125 -0.5978881250 -3.2940044480
457 1 2.8395587500 -1.2007884375 -5.7103761952
458 1 4.0105293750 -0.7600518750 -3.2375984880
459 1 3.3927000000 -1.2992450000 -4.8640717920
460 1 3.9664678125 -1.3231234375 -5.6937199232
461 1 4.4760715625 -1.4539375000 -4.8041946960
462 1 5.0391968750 -1.5324528125 -5.6047629968
463 1 5.6513153125 -1.5097434375 -4.8506276160
464 1 6.1594006250 -0.9365668750 -3.2573502880
465 1 6.1592662500 -1.5585350000 -5.7122827296
466 1 2.8179243750 -0.0077668750 -5.6838012816
467 1 3.4151943750 -0.7544215625 -4.0286807440
468 1 3.4235121875 0.4146812500 -4.1157829440
469 1 3.9029353125 -0.2539418750 -5.6115109888
470 1 4.5033496875 -0.2371987500 -4.8844064320
471 1 5.0656956250 0.1411071875 -6.4007273797
472 1 4.4832875000 0.2510125000 -4.0331491840
473 1 6.2024812500 -0.3838153125 -5.6593077544
474 1 5.6345856250 -0.3825118750 -4.8904032080
475 1 5.5910346875 -0.9586715625 -4.0508027600
476 1 2.8054678125 1.0277268750 -5.5866586912
477 1 3.4355118750 1.0069256250 -4.8574274160
478 1 3.9300387500 1.4269415625 -6.4126360961
479 1 3.3533415625 1.5255593750 -4.0068954800
480 1 3.9427775000 0.8293490625 -5.6915297400
481 1 4.5177681250 0.8507818750 -4.8528424080
482 1 5.0683831250 0.7395059375 -5.7006311104
483 1 4.6137387500 1.3329193750 -3.8699539840
484 1 5.0483478125 -0.4628278125 -5.6621455376
485 1 5.5990165625 0.7061540625 -4.8495396480
486 1 6.0542521875 1.2762131250 -3.2280269600
487 1 6.1857784375 0.6878253125 -5.6594359792
488 1 3.3304843750 -1.8339500000 -3.9945910800
489 1 5.1154681250 -2.0252731250 -3.2581792160
490 1 6.1970390625 -2.0893834375 -3.2148547760
491 1 2.7387237500 -0.0736375000 -2.4208324160
492 1 2.8604809375 -1.1581512500 -2.4957208800
493 1 3.9455590625 -1.8873506250 -3.2856115520
494 1 3.8867162500 -1.3524440625 -2.4570721120
495 1 4.5295393750 -0.8431493750 -4.1077138480
496 1 5.0421128125 -1.5248068750 -2.3905376880
497 1 5.0443165625 -0.9335434375 -3.1927068560
498 1 6.2038653125 -1.4943709375 -2.4595848000
499 1 2.7978487500 1.5810831250 -3.1991180960
500 1 2.9011293750 0.4945134375 -3.2160204560
501 1 3.9111993750 0.3017793750 -3.1942481440
502 1 3.9203368750 -0.2308159375 -2.3735317120
503 1 5.0604550000 0.2682662500 -3.2391656800
504 1 5.1045434375 -0.3405600000 -2.4748681600
505 1 5.6222096875 0.1089915625 -4.0403245920
506 1 2.2876403125 1.7184546875 -4.1131148320
507 1 3.9737778125 1.4464259375 -3.2922688800
508 1 3.9994165625 0.9146906250 -2.4335124240
509 1 5.5468656250 1.2457503125 -3.9663945760
510 1 6.2099121875 0.1866200000 -3.2451365520
511 1 6.1522250000 0.7272778125 -2.3876623440
512 1 6.6863521875 1.3626968750 -4.0199381440
513 1 2.8397200000 2.1204106250 -5.6904365912
514 1 3.3946081250 2.0862793750 -4.8570906640
515 1 3.9532050000 2.0398931250 -5.7163639048
516 1 4.4423703125 1.8654071875 -4.8010862160
517 1 5.0236900000 1.8687531250 -5.5920013912
518 1 5.6405250000 1.7782381250 -4.8547463520
519 1 6.1510425000 1.8406553125 -5.6835538984
520 1 3.8896456250 1.9966646875 -2.4183844880
521 1 5.0529971875 1.7486621875 -2.4574865760
522 1 6.2141450000 1.8534343750 -2.4360769200
523 1 6.1983962500 -0.3774593750 -2.4408303040
524 1 2.8400021875 1.0381543750 -2.3755910800
525 1 5.0448271875 0.8219046875 -2.5475936400
526 1 2.8722118750 2.1894525000 -2.4709048480
527 1 5.0281109375 2.2295096875 -3.2092983680
528 1 2.8201550000 -1.7879400000 -6.4578570974
529 1 6.1742893750 -0.9669087500 -6.4565739428
530 1 6.1945934375 1.2552103125 -6.4469890742
531 1 2.8166209375 1.5426115625 -6.4745866778
532 1 5.0750750000 1.3322475000 -6.4633724217
533 1 -5.5985677500 6.5902337500 -4.8793033440
534 1 -5.0084115625 6.5868878125 -5.6635793240
535 1 -3.3248540625 6.3219137500 -4.0238366960
536 1 -5.0241871875 6.6074203125 -2.3888409760
537 1 -6.1362814063 6.4801940625 -5.7124757144
538 1 -3.9698406250 2.9095009375 -3.2164219680
539 1 -6.1183047188 2.5481128125 -3.2702245760
540 1 -5.5513658438 2.6476040625 -4.0429927040
541 1 -4.4934731250 2.8059515625 -4.1038541520
542 1 -3.9190737500 2.3825628125 -5.6981352600
543 1 -3.3568621875 2.4134959375 -4.8551996720
544 1 -2.7908881250 3.0727665625 -6.4570096481
545 1 -2.7976471875 2.4897537500 -5.6878578480
546 1 -6.1722468750 3.1364737500 -5.6999848056
547 1 -6.7120142113 3.5998121875 -4.1047737440
548 1 -6.1427072188 2.5222456250 -6.4205145386
549 1 -5.6233706875 3.2035806250 -4.8711306320
550 1 -5.0164471875 3.8412168750 -6.4188628996
551 1 -5.5789127188 3.7465765625 -4.0137470880
552 1 -5.0398821875 3.2490396875 -5.6582962032
553 1 -4.4860959375 3.3928343750 -4.8739541680
554 1 -3.8860175000 4.0115371875 -3.1979394640
555 1 -3.8832225000 3.4633812500 -5.6143461816
556 1 -3.2903331250 3.5241725000 -4.8549924400
557 1 -3.3680959375 4.0960187500 -4.1044758480
558 1 -2.7667678125 3.6596359375 -5.6992866928
559 1 -6.1297642188 5.3034050000 -5.6761259264
560 1 -6.1866384375 4.2290500000 -5.6384861192
561 1 -5.6262369063 4.8763478125 -4.0830661920
562 1 -5.5990300000 4.2899756250 -4.8425844240
563 1 -4.4269171875 3.9359378125 -4.0509452320
564 1 -3.9777553125 5.7370196875 -5.6960512832
565 1 -4.5372525000 4.4936612500 -4.8720502240
566 1 -5.0824521875 4.4309618750 -5.7037680848
567 1 -3.3931837500 4.6854412500 -4.8822564000
568 1 -3.3071568750 5.2122987500 -4.0496888880
569 1 -2.7847606250 4.7536500000 -5.6292966752
570 1 -6.1816853750 5.8864715625 -6.4425118269
571 1 -5.6092828125 5.4768696875 -4.8196723360
572 1 -5.6163173438 6.0445637500 -4.0369959280
573 1 -5.0473131250 5.5272065625 -5.6449996800
574 1 -4.4898584375 5.5910212500 -4.8088833200
575 1 -4.4976387500 6.1969584375 -4.0807995920
576 1 -3.4238615625 5.7830162500 -4.8631651520
577 1 -2.7644296875 6.4543134375 -3.2557571920
578 1 -2.8408621875 5.8679546875 -5.6532682368
579 1 -6.1556139375 3.0885153125 -2.4427472000
580 1 -4.9980378125 2.7336578125 -3.1872281600
581 1 -3.8635768750 2.3126206250 -2.4421902640
582 1 -3.4058821875 2.9664759375 -4.0290952080
583 1 -2.8261750000 3.0734787500 -3.2729056400
584 1 -6.1806520313 3.6638015625 -3.2553945360
585 1 -5.0001878125 3.8592500000 -3.2667663920
586 1 -5.0853681250 3.3326209375 -2.4294584480
587 1 -3.8920643750 3.4550096875 -2.3833104720
588 1 -2.7402556250 3.6342659375 -2.4521374000
589 1 -2.8456190625 4.2169831250 -3.2173933680
590 1 -6.1630300938 4.7469984375 -3.2277290640
591 1 -6.1270108750 4.2010865625 -2.4060412320
592 1 -4.4570843750 5.0259475000 -4.0129440640
593 1 -5.0673350000 4.9986021875 -3.2842774960
594 1 -3.8795675000 5.1495053125 -3.2599018320
595 1 -3.9933293750 4.5977078125 -2.4295750160
596 1 -2.7676278125 5.3350100000 -3.1864639920
597 1 -2.8082090625 4.7587428125 -2.3964826560
598 1 -6.1468486563 6.4441278125 -2.4436020320
599 1 -6.1591184375 5.8845365625 -3.2414452320
600 1 -5.0334993750 6.0797296875 -3.2382590400
601 1 -5.0182881250 5.5133256250 -2.4138901440
602 1 -3.9377921875 6.2472281250 -3.2815316720
603 1 -3.9259134375 5.6986018750 -2.4379031520
604 1 -2.8430390625 5.9183184375 -2.4181513520
605 1 -2.2743775000 4.2697118750 -4.0112862080
606 1 -2.2522190625 5.4013240625 -4.1003571120
607 1 -6.6885176406 2.9842806250 -4.8252805520
608 1 -2.8273843750 2.5311412500 -2.4479798080
609 1 -5.0417231250 4.4278578125 -2.4700111600
610 1 -6.1619000000 5.3347681250 -2.4322949360
611 1 -3.9487303125 4.5658878125 -5.6544429832
612 1 -2.2605906250 2.6400656250 -4.8437760080
613 1 -2.2730875000 5.9718265625 -4.8817124160
614 1 -6.7027744250 6.3536128125 -4.8846136640
615 1 -6.7152955816 5.3206587500 -4.8862456160
616 1 -3.9394450000 3.9985162500 -6.4700318738
617 1 -3.8905459375 5.1420743750 -6.4258100934
618 1 -2.8042584375 5.3108762500 -6.4493002291
619 1 -2.7478209375 6.4568128125 -6.4282406657
620 1 2.1608171875 6.7089540625 -4.8625693600
621 1 -2.2028228125 3.7126334375 -4.8546945440
622 1 -2.2144193750 4.7979400000 -4.8581268240
623 1 -1.6468328125 6.5976512500 -3.1959448560
624 1 -2.1722390625 6.5062090625 -4.0370347840
625 1 1.0963656250 2.4129718750 -4.8236226960
626 1 -1.6782765625 3.1849562500 -6.4609885025
627 1 -2.2319553125 3.1645446875 -3.9936326320
628 1 -1.6837590625 2.6449434375 -5.6261726528
629 1 -1.0859515625 2.6715093750 -4.8710917760
630 1 -1.0938125000 3.2127046875 -4.0347681840
631 1 -0.5459387500 2.6926331250 -5.7077301016
632 1 -0.0180196875 2.5420256250 -4.8459778480
633 1 0.0412128125 3.1417950000 -4.0799188560