ITEM: TIMESTEP
52000
ITEM: NUMBER OF ATOMS
2304
ITEM: BOX BOUNDS pp pp pp
-6.7187500000 6.7187500000
-6.7187500000 6.7187500000
-6.4760000000 6.4760000000
ITEM: ATOMS id type x y z
1 1 -5.5875248125 -6.4423769063 -4.0862523840
2 1 -4.4644346875 -6.3312581875 -4.0576414160
3 1 -3.3899990625 -6.6557459969 -4.8838624480
4 1 -3.3459778125 -6.1276303438 -3.9931793120
5 1 -2.8154653125 -6.6324379813 -5.6995975408
6 1 -6.1135545625 -5.4358248438 -6.4408850557
7 1 -6.6789031094 -5.4327597500 -4.0558799440
8 1 -6.1523445938 -6.0086520313 -5.6492790208
9 1 -5.5885581563 -5.8735903750 -4.8604840880
10 1 -5.0542737500 -5.2432318750 -6.4456203069
11 1 -5.6129163125 -5.3058237500 -4.0650111040
12 1 -5.0032515625 -5.8106827188 -5.6449452816
13 1 -4.4441440625 -5.7548848438 -4.8363933680
14 1 -4.4947228125 -5.1757487500 -4.0888945920
15 1 -3.8985681250 -5.5883942188 -5.6523421688
16 1 -3.3127334375 -5.5869456563 -4.8637609440
17 1 -2.8347884375 -4.8674790625 -6.4692132686
18 1 -3.3611353125 -5.0466009375 -4.0473057200
19 1 -2.7859162500 -5.4537706250 -5.7147578568
20 1 -6.2157790000 -4.8724375000 -5.6505716304
21 1 -5.6154922813 -4.7649643750 -4.9094685520
22 1 -5.5625539063 -4.2318987500 -4.0536003920
23 1 -5.0183821875 -4.6891365625 -5.6334607432
24 1 -4.4529993750 -4.5872265625 -4.8353572080
25 1 -4.4792293750 -4.0052484375 -4.0681972960
26 1 -3.8936500000 -4.5094906250 -5.6491313680
27 1 -3.3322715625 -4.4623653125 -4.8401883040
28 1 -3.3591331250 -3.8860578125 -4.0651276720
29 1 -2.7802590625 -4.3088015625 -5.6614940520
30 1 -6.1529707813 -3.7314325000 -5.7341845616
31 1 -5.6514537188 -3.6523125000 -4.8167710880
32 1 -5.5630484063 -3.0826162500 -4.0147184880
33 1 -5.0940353125 -3.5851921875 -5.6510456736
34 1 -4.5235596875 -3.4605056250 -4.8816735600
35 1 -3.8817175000 -2.8331087500 -6.4755629076
36 1 -4.4224693750 -2.9027687500 -4.0539371440
37 1 -3.9308853125 -3.3898378125 -5.6306618160
38 1 -3.3584478125 -3.3254856250 -4.8558602240
39 1 -3.3751775000 -2.7425400000 -4.0629387840
40 1 -2.7757306250 -3.2091034375 -5.6463130128
41 1 -6.1403274375 -6.5697240938 -3.2779957760
42 1 -5.0468831250 -6.3253564375 -3.2498769840
43 1 -3.9365559375 -6.1369250625 -3.2250091440
44 1 -2.7507771875 -6.0615581563 -3.2453178800
45 1 -2.8478900000 -6.6153767906 -2.4230601600
46 1 -6.1490215000 -5.4585718438 -3.1918520240
47 1 -6.1599703750 -6.0451697813 -2.4200552960
48 1 -5.0556846875 -5.2736946875 -3.2550966400
49 1 -5.0207203125 -5.7951032813 -2.3757724080
50 1 -3.9635518750 -5.0173340625 -3.2549412160
51 1 -3.8874956250 -5.5709953438 -2.4402474640
52 1 -2.8409965625 -4.8758506250 -3.2193620720
53 1 -2.7843843750 -5.4777538750 -2.4893744000
54 1 -6.1218790938 -4.2823028125 -3.2109044160
55 1 -6.1510317500 -4.8689034375 -2.4569684960
56 1 -5.0231793750 -4.1601828125 -3.2079643120
57 1 -4.9976481250 -4.7214403125 -2.4016116480
58 1 -3.9234543750 -3.9665887500 -3.2509131440
59 1 -3.8921046875 -4.4861093750 -2.3586628160
60 1 -2.8264571875 -3.7391456250 -3.2234549040
61 1 -2.7870584375 -4.3237709375 -2.4594552800
62 1 -6.1523257813 -3.1680115625 -3.2948333760
63 1 -6.1937441875 -3.7026225000 -2.4350537120
64 1 -4.9806228125 -3.0416184375 -3.2309023040
65 1 -5.0552681250 -3.5972456250 -2.4188766640
66 1 -3.8992937500 -2.8505640625 -3.1729291520
67 1 -3.8678365625 -3.4211606250 -2.4030752240
68 1 -2.8209343750 -2.7290890625 -3.2471570640
69 1 -2.7104243750 -3.1995359375 -2.2691644960
70 1 -2.2941171875 -6.4303342188 -4.8569093360
71 1 -2.2532403125 -4.8251912500 -3.9910940400
72 1 -2.2471665625 -3.7432575000 -4.0399101280
73 1 -2.2522190625 -3.1227943750 -4.7901547280
74 1 -2.2673093750 -2.5490937500 -4.0656716560
75 1 -6.1190195938 -2.6038112500 -5.6687678952
76 1 -5.5779116250 -2.5345946875 -4.8328056640
77 1 -5.0368184375 -2.4960021875 -5.7350484600
78 1 -4.5349546875 -2.3190706250 -4.8262260480
79 1 -6.1436720313 -2.6481146875 -2.4370094640
80 1 -5.0705465625 -2.4634565625 -2.4541838160
81 1 -3.9375503125 -2.2501228125 -2.4337067040
82 1 -6.6808769438 -4.3442228125 -4.0130347280
83 1 -6.6979370594 -3.7845912500 -4.8602768560
84 1 -6.6842201938 -2.7119965625 -4.8477263680
85 1 -3.9721115625 -2.2869684375 -5.6445865112
86 1 -2.7737284375 -6.0375090625 -6.4548939389
87 1 -6.1164422813 -4.3308793750 -6.4694318983
88 1 -4.9971240625 -4.1318565625 -6.4731386960
89 1 -3.9340162500 -3.9331831250 -6.4475330582
90 1 -2.8364546875 -3.7597318750 -6.4749964298
91 1 -2.8310528125 -2.6421753125 -6.4545500633
92 1 -2.2233687500 -5.3250393750 -4.8840178720
93 1 -2.1923684375 -5.8874726563 -4.0396251840
94 1 -1.7011337500 -6.4211671563 -5.6064946792
95 1 -1.0916625000 -6.3020437188 -4.8997934080
96 1 -1.1197468750 -5.7470212188 -4.0853586960
97 1 -0.5164165625 -6.2419646563 -5.6561358096
98 1 0.0417368750 -6.3218102813 -4.8478688400
99 1 -0.0139884375 -5.7493391875 -4.0620191920
100 1 0.5987615625 -6.3488371250 -5.6951925656
101 1 1.1145196875 -6.4220123750 -4.8077435440
102 1 1.7303737500 -5.9876747500 -6.4737620757
103 1 1.1415021875 -5.8441528438 -4.0402727840
104 1 1.6427478125 -6.5542131875 -5.6928961760
105 1 -1.7010128125 -4.7121415625 -6.4562699594
106 1 -1.6578112500 -5.3082021875 -5.7152888888
107 1 -1.1452512500 -5.1489140625 -4.8361343280
108 1 -1.0768812500 -4.5922790625 -4.0188372240
109 1 -0.5677746875 -5.1410396875 -5.6475123680
110 1 -0.0198875000 -5.1554984375 -4.8191931120
111 1 0.5979015625 -4.7195053125 -6.4713107673
112 1 0.0662871875 -4.5849556250 -4.0738314160
113 1 0.5181231250 -5.2833831250 -5.6566500040
114 1 1.1153393750 -5.2892687500 -4.8883956480
115 1 1.6965381250 -4.8068759375 -6.4199210780
116 1 1.1509487500 -4.7661200000 -4.0266343280
117 1 1.6525034375 -5.4033826875 -5.7096042560
118 1 -2.2061821875 -4.2666750000 -4.8665456240
119 1 -1.6611571875 -4.1362775000 -5.6875754944
120 1 -1.1259146875 -4.0251762500 -4.8077305920
121 1 -0.5674521875 -3.4955371875 -6.4538470287
122 1 -1.1441628125 -3.4425800000 -4.0393920480
123 1 -0.5961278125 -4.0765343750 -5.6624227104
124 1 -0.0174015625 -3.9956406250 -4.8669341840
125 1 0.5380778125 -3.5452425000 -6.4083627132
126 1 -0.0438331250 -3.4999446875 -3.9728446720
127 1 0.5294509375 -4.1493925000 -5.6887256320
128 1 1.0978034375 -4.2209068750 -4.9146493520
129 1 1.1150975000 -3.6860809375 -4.0626926960
130 1 1.6973175000 -4.2073215625 -5.6808365688
131 1 -1.7019803125 -3.0523415625 -5.6279768664
132 1 -1.1243425000 -2.8906212500 -4.8679703440
133 1 -0.5848940625 -2.3778731250 -6.4559685663
134 1 -1.1683906250 -2.3485256250 -4.0358691040
135 1 -0.5688362500 -2.9322371875 -5.6522087632
136 1 0.5850150000 -2.9358115625 -5.7139302240
137 1 0.0320350000 -2.9676181250 -4.8940686240
138 1 1.1013509375 -3.1093165625 -4.8206437360
139 1 1.0460556250 -2.5050321875 -4.0856695440
140 1 1.5910403125 -2.6162812500 -3.2685278640
141 1 1.6704425000 -3.1433806250 -5.6215941208
142 1 -1.6430165625 -5.8226850938 -3.2081326880
143 1 -1.6629175000 -6.3703210000 -2.3708247440
144 1 -0.5788471875 -5.7071844063 -3.2363032880
145 1 -0.5034762500 -6.2894420313 -2.4305723200
146 1 0.5480887500 -5.7860786563 -3.2706778960
147 1 0.5723031250 -6.3443221250 -2.4649987360
148 1 1.7078390625 -5.9618599688 -3.2575316160
149 1 1.6697034375 -6.5091465000 -2.4522021600
150 1 -1.6538337500 -4.6682950000 -3.2747577760
151 1 -1.7012009375 -5.2350753125 -2.4403381280
152 1 -0.5048603125 -4.6323496875 -3.2606400960
153 1 -0.5706771875 -5.1799950000 -2.3979203280
154 1 0.5907796875 -4.6680262500 -3.2058272320
155 1 0.5749906250 -5.2345915625 -2.4366727120
156 1 1.7250256250 -4.7992703125 -3.2207997440
157 1 1.6555403125 -5.3867860313 -2.4700500160
158 1 -1.7104996875 -3.4965718750 -3.2217193360
159 1 -1.6980431250 -4.1368956250 -2.4722907120
160 1 -0.6253006250 -3.4688771875 -3.1824747760
161 1 -0.6144565625 -4.0801221875 -2.4463478560
162 1 0.5667400000 -3.5126565625 -3.2407069680
163 1 0.4904553125 -4.0710115625 -2.4467364160
164 1 1.6542100000 -3.7007681250 -3.2067856800
165 1 1.6409606250 -4.2594590625 -2.3723789840
166 1 -1.6943075000 -2.4588071875 -3.1786798400
167 1 -1.8000068750 -3.0214084375 -2.2626755440
168 1 -0.1014262500 -2.4418759375 -4.0417622640
169 1 -0.5768718750 -2.8951093750 -2.4612685600
170 1 0.4810356250 -2.3918212500 -3.2529466080
171 1 0.5365190625 -2.9726706250 -2.4102506320
172 1 2.2057790625 -5.5198656563 -4.9134059600
173 1 2.2278434375 -4.3995853125 -4.8576994080
174 1 2.1935509375 -3.8069109375 -4.1076749920
175 1 -0.6023090625 -2.2713271875 -3.1711806320
176 1 1.7156328125 -3.1464040625 -2.4039948160
177 1 2.2003503125 -6.5676600938 -4.8547722560
178 1 2.1898153125 -2.6605309375 -4.0110012640
179 1 -1.6512806250 -5.8938608438 -6.4753679955
180 1 -1.7000184375 -2.5005306250 -6.4697126459
181 1 6.7123671875 -6.5393378750 -4.0384983600
182 1 6.6989028125 -5.9966160625 -4.8683589040
183 1 6.6678756250 -3.2432615625 -4.0125684560
184 1 6.6654837500 -4.8669012500 -4.8651727120
185 1 2.8368309375 -6.0883175938 -6.4250917754
186 1 2.2995190625 -6.0412299063 -4.0133455760
187 1 2.7434000000 -6.6882404250 -5.7004096312
188 1 3.4021734375 -6.2385448125 -4.0851514640
189 1 4.4548537500 -6.3714766250 -4.1052270640
190 1 2.2520443750 -4.9668628125 -4.0760591600
191 1 2.8229500000 -5.5078458125 -5.6597999304
192 1 3.3616459375 -5.6648468750 -4.8622973680
193 1 3.3098846875 -5.0712050000 -4.1129594080
194 1 3.9582575000 -5.7150399688 -5.6283537696
195 1 4.5425603125 -5.7803368125 -4.8525574640
196 1 4.4095828125 -5.2356665625 -4.0242382080
197 1 5.0694446875 -5.9032791875 -5.6959800472
198 1 5.6096725000 -5.9651145313 -4.8313679920
199 1 5.6146578125 -5.4136381875 -4.0041755600
200 1 6.1522653125 -6.0074775938 -5.6877995640
201 1 2.8215793750 -4.4257615625 -5.6134408368
202 1 3.4204484375 -4.4768643750 -4.8490215680
203 1 3.2950631250 -3.9402512500 -4.0210520160
204 1 3.9592115625 -4.6393506250 -5.6689492232
205 1 4.5122721875 -4.6709018750 -4.8296194720
206 1 4.4972625000 -4.1077362500 -4.0173218400
207 1 5.0579556250 -4.7767221875 -5.7090162352
208 1 5.5741571875 -4.8560437500 -4.8152686560
209 1 5.6376493750 -4.2585990625 -4.0602706720
210 1 6.1134981250 -4.9128978125 -5.6889004840
211 1 2.2667718750 -3.2059187500 -4.8319119760
212 1 2.7581275000 -2.8030356250 -6.4652695400
213 1 2.7988162500 -3.3536237500 -5.6586459072
214 1 3.3619146875 -3.3659190625 -4.8287775920
215 1 3.3920550000 -2.8146993750 -4.0214276240
216 1 3.8985815625 -3.4853112500 -5.7029559944
217 1 4.4330312500 -3.5607225000 -4.8490733760
218 1 5.0466278125 -3.1032428125 -6.4502681321
219 1 4.5154031250 -2.9904215625 -4.0779112960
220 1 5.0064631250 -3.6715012500 -5.6367479608
221 1 5.6114462500 -3.7317953125 -4.9021636240
222 1 6.1124096875 -3.1886112500 -6.4372809026
223 1 5.5608271875 -3.1689656250 -4.0695443040
224 1 6.1801750000 -3.7786787500 -5.6799066152
225 1 2.8786350000 -6.0967805313 -3.2319125600
226 1 2.7423921875 -6.6682589969 -2.4547925600
227 1 3.9379668750 -6.2749443125 -3.1944553760
228 1 4.9880268750 -6.4598953750 -3.2330523360
229 1 6.1384515625 -6.6046820188 -3.2646293120
230 1 2.7985609375 -4.9862396875 -3.2024985680
231 1 2.7487346875 -5.5617127188 -2.3872090240
232 1 3.8389996875 -5.1811506250 -3.2399557520
233 1 3.9778762500 -5.7189758125 -2.3823261200
234 1 5.0069200000 -5.3355340625 -3.2994054320
235 1 5.1019500000 -5.8790540625 -2.4610872320
236 1 6.1989471875 -5.4480811875 -3.2440615360
237 1 6.1498600000 -6.0333783750 -2.4744796000
238 1 2.7081937500 -3.9055556250 -3.2438154480
239 1 2.8656275000 -4.4375462500 -2.3887373600
240 1 3.8912581250 -4.0511643750 -3.2949888000
241 1 3.9829825000 -4.6095059375 -2.4695966960
242 1 5.0765396875 -4.2173325000 -3.2540604800
243 1 5.0167562500 -4.7908315625 -2.4568001200
244 1 6.1703118750 -4.3372084375 -3.2197894880
245 1 6.1155675000 -4.8948109375 -2.4262074960
246 1 2.7898534375 -2.7769534375 -3.2945354800
247 1 2.8257718750 -3.3234431250 -2.4731844000
248 1 3.9621140625 -2.9435918750 -3.2312649600
249 1 3.8647593750 -3.5181928125 -2.4469954560
250 1 5.0343996875 -3.0919150000 -3.1777213920
251 1 4.9975809375 -3.6795503125 -2.4226586480
252 1 6.1202168750 -3.1774178125 -3.2256437920
253 1 6.1799062500 -3.7474365625 -2.4437574560
254 1 3.3087559375 -2.2536568750 -4.8408100000
255 1 3.8631871875 -2.3768250000 -5.6639873120
256 1 4.4560228125 -2.4260062500 -4.9032256880
257 1 5.0237303125 -2.5302678125 -5.6697185720
258 1 5.6075628125 -2.6225700000 -4.8954285840
259 1 6.1933840625 -2.6075871875 -5.6490070288
260 1 3.8724725000 -2.3955837500 -2.4126597040
261 1 5.0613015625 -2.4851312500 -2.4465680400
262 1 6.1736981250 -2.6232821875 -2.4095771280
263 1 5.5578575000 -6.5401978750 -4.0336413600
264 1 6.1528968750 -6.5916901063 -6.4586706126
265 1 3.9002881250 -4.0743037500 -6.4563253939
266 1 -3.3992037500 -2.1939943750 -4.8732806640
267 1 -2.8265646875 -2.1364012500 -2.4343024960
268 1 -6.1813749688 -2.0172509375 -6.4642947854
269 1 -5.0887543750 -1.8833328125 -6.4327483502
270 1 -5.6619564688 -1.9694403125 -4.0064421600
271 1 -4.4836368750 -1.7815975000 -3.9934383520
272 1 -3.3115106250 -1.6314200000 -4.0827423920
273 1 -2.8260271875 -2.0974190625 -5.6459283384
274 1 -6.1434395625 -0.9625415625 -6.4684890834
275 1 -6.6807905406 -0.9598540625 -4.0536392480
276 1 -6.1879082813 -1.4935378125 -5.5986082064
277 1 -5.5453324063 -1.4578478125 -4.9161776880
278 1 -5.0788106250 -0.7213115625 -6.4384503387
279 1 -5.5922158438 -0.9194071875 -4.0889204960
280 1 -4.9883896875 -1.3045528125 -5.6863942720
281 1 -4.4212465625 -1.2328368750 -4.8521430000
282 1 -4.5174859375 -0.6913728125 -4.0017664880
283 1 -3.8711959375 -1.2021053125 -5.7211380120
284 1 -3.3702593750 -1.0270146875 -4.7851941120
285 1 -3.3388962500 -0.4499143750 -4.0119985680
286 1 -2.8486559375 -0.9784112500 -5.6728607272
287 1 -6.1903915313 -0.3899562500 -5.6819245368
288 1 -5.6358406875 -0.3212234375 -4.8310700960
289 1 -5.5505784063 0.2534581250 -4.0696479200
290 1 -5.0886468750 -0.1633462500 -5.6090863744
291 1 -4.4584146875 -0.1810971875 -4.8974750000
292 1 -4.4480275000 0.3872150000 -4.1010306160
293 1 -3.9197187500 -0.0202637500 -5.6949102120
294 1 -3.3550346875 0.0710575000 -4.9013865040
295 1 -2.8448934375 0.7014240625 -6.4243677586
296 1 -3.3962475000 0.6053996875 -4.0057298000
297 1 -2.7785121875 0.0923693750 -5.7173715704
298 1 -6.6904426969 0.6592571875 -4.8590982240
299 1 -6.1377192188 0.7406884375 -5.7091872016
300 1 -5.6408743750 0.8540606250 -4.7955557120
301 1 -5.6223158438 1.4254634375 -4.0044346000
302 1 -5.0807187500 0.8795918750 -5.6648978376
303 1 -4.5352234375 0.9811659375 -4.8253064560
304 1 -4.4315665625 1.5588843750 -4.0623041360
305 1 -3.9940818750 1.1332381250 -5.6313534528
306 1 -3.3669940625 1.1200156250 -4.9300233760
307 1 -2.7892084375 1.8719378125 -6.4488395265
308 1 -2.7947178125 1.2842218750 -5.6784922568
309 1 -6.2208825625 -2.0576843750 -3.1976933760
310 1 -5.0583050000 -1.9137553125 -3.2523378640
311 1 -3.8532703125 -1.7217200000 -3.2810394960
312 1 -2.7503740625 -1.5825881250 -3.2455769200
313 1 -6.1485135625 -0.9228203125 -3.2036253920
314 1 -6.1332405000 -1.4938603125 -2.4161437920
315 1 -5.0751018750 -0.7302609375 -3.1992735200
316 1 -4.9933481250 -1.3325968750 -2.4797381120
317 1 -3.8972646875 -0.6128843750 -3.2550966400
318 1 -3.9304150000 -1.1538378125 -2.4525130080
319 1 -2.7478746875 -0.5108265625 -3.2392822480
320 1 -2.7931859375 -1.0360446875 -2.3611107440
321 1 -6.1176530000 0.1700918750 -3.3069175920
322 1 -6.2067731875 -0.3397940625 -2.4164287360
323 1 -4.9962640625 0.3804021875 -3.2310447760
324 1 -5.0542200000 -0.1748218750 -2.3989435360
325 1 -3.9497784375 0.5557615625 -3.1739135040
326 1 -3.8992265625 -0.0457815625 -2.4509717200
327 1 -6.1890222500 1.2812118750 -3.2568063040
328 1 -6.1564000313 0.7110318750 -2.4510753360
329 1 -4.9962640625 1.4377990625 -3.3007524400
330 1 -5.1115040625 0.9301706250 -2.3953687840
331 1 -2.8195771875 1.8515396875 -3.1826172480
332 1 -3.9309256250 1.1230121875 -2.3925970560
333 1 -2.8010334375 0.6194821875 -3.2042211840
334 1 -2.7585709375 1.2235918750 -2.4906048400
335 1 -2.2647696875 -1.9772743750 -4.8653151840
336 1 -2.2753046875 -0.9409475000 -4.8744592960
337 1 -2.2822787500 0.2541703125 -4.8149060000
338 1 -6.1673704063 1.8403462500 -5.6353918864
339 1 -5.5661900938 1.9493109375 -4.8793162960
340 1 -5.0191212500 1.9963556250 -5.7012178360
341 1 -4.4937821875 2.1448265625 -4.8136108000
342 1 -3.9463115625 2.1942765625 -5.6884342120
343 1 -3.3258350000 1.6502593750 -4.0836101760
344 1 -6.1165578438 1.8304696875 -2.4435113680
345 1 -5.0255846875 1.9892068750 -2.4610483760
346 1 -3.8753346875 1.6730762500 -3.2301640400
347 1 -2.8029953125 0.0542606250 -2.4326964480
348 1 -2.2784356250 0.8080237500 -4.0207800240
349 1 -2.2769709375 1.8796643750 -4.0279165760
350 1 -3.9886396875 2.2207350000 -2.4111831760
351 1 -3.9950225000 -0.6039753125 -6.4438778743
352 1 -3.9231050000 0.5730959375 -6.4383442618
353 1 -2.2239868750 -0.3506784375 -4.1102265360
354 1 -2.2194315625 1.3430781250 -4.8863103760
355 1 1.6670965625 -2.0514493750 -2.4753991920
356 1 -1.6764759375 0.7738925000 -3.2793816400
357 1 -1.6860434375 -1.3093096875 -6.3989608564
358 1 -2.1678046875 -1.4415884375 -3.9254274000
359 1 -1.6997362500 -1.9346775000 -5.6926462024
360 1 -1.2480212500 -1.3024834375 -3.8942519360
361 1 -0.5675328125 -1.7995903125 -5.6946822568
362 1 -0.6043784375 -1.1984637500 -3.2743562640
363 1 -1.1467428125 -1.8020762500 -4.8826579120
364 1 -0.0579156250 -1.8427784375 -4.8022907520
365 1 -0.0451768750 -1.2658125000 -4.0764995280
366 1 0.5005468750 -1.8469440625 -5.6055984008
367 1 1.1125040625 -1.9275959375 -4.8485164400
368 1 1.6353706250 -1.5136403125 -6.4631445701
369 1 1.0879671875 -1.3861050000 -4.0295744320
370 1 1.6615737500 -2.0674400000 -5.6477882456
371 1 -1.7076509375 -0.7267403125 -5.6393979400
372 1 -1.1141031250 -0.7906893750 -4.8462368880
373 1 -0.5762671875 -0.0942909375 -6.4495239102
374 1 -1.1409646875 -0.1947496875 -4.0841671120
375 1 -0.5790890625 -0.6668762500 -5.6619201728
376 1 -0.0100781250 -0.6772768750 -4.8354349200
377 1 0.5403353125 -0.7700493750 -5.6372414320
378 1 -0.0221181250 -0.1255868750 -4.0248340000
379 1 1.1132028125 -0.8061559375 -4.8317047440
380 1 1.0986903125 -0.2480831250 -4.0542479920
381 1 1.6551640625 -0.9446831250 -5.6753863672
382 1 -1.7117225000 0.3186703125 -5.6384951856
383 1 -1.1454931250 0.3829150000 -4.8196723360
384 1 -1.1236840625 0.9833293750 -4.0635734320
385 1 -0.5915993750 0.4508818750 -5.6237713520
386 1 0.0045956250 0.4192634375 -4.8585671920
387 1 -0.0174956250 1.0043590625 -4.0912000480
388 1 0.5552912500 0.3666959375 -5.6739538760
389 1 1.1285484375 0.3269209375 -4.8607949360
390 1 1.6588325000 0.1552837500 -5.6807977128
391 1 1.0545884375 0.8792021875 -4.0393920480
392 1 -1.7142218750 2.0026175000 -6.4345124126
393 1 -1.6530946875 1.4086934375 -5.7012385592
394 1 -1.1359525000 1.5505934375 -4.8300727920
395 1 -1.1635531250 2.1299512500 -4.0395863280
396 1 -0.5658934375 1.5184240625 -5.6549209120
397 1 -0.0001075000 1.5816340625 -4.8559249840
398 1 -0.0189065625 2.1390081250 -4.0551157760
399 1 0.5356725000 1.4770096875 -5.6887528312
400 1 1.1263178125 1.4162587500 -4.9075516560
401 1 1.6826168750 1.3383481250 -5.7163988752
402 1 1.6687628125 0.7518550000 -6.4407367553
403 1 -1.6569378125 -0.9579996875 -2.6767250800
404 1 -1.7147996875 -1.8373362500 -2.5605974480
405 1 -0.5802715625 -0.6600500000 -2.4107169040
406 1 0.4998884375 -1.3060443750 -3.2567674480
407 1 0.5944884375 -1.8692100000 -2.4321783680
408 1 1.6812865625 -1.4835268750 -3.2749779600
409 1 -0.5713356250 -0.0837828125 -3.2612488400
410 1 -0.6582225000 0.4186990625 -2.3532488800
411 1 0.5643212500 -0.1875471875 -3.2312261040
412 1 1.6442393750 -0.4017140625 -3.1918261200
413 1 -1.6909346875 1.3664728125 -2.4535232640
414 1 -1.7033912500 -0.2605531250 -3.1941963360
415 1 -0.5618621875 0.9800103125 -3.2297107200
416 1 -1.6048003125 0.3022362500 -2.3117636240
417 1 0.5800431250 1.4879746875 -2.4473451600
418 1 0.4939356250 0.8927875000 -3.1837181680
419 1 1.6034968750 0.7397746875 -3.2068633920
420 1 1.6830065625 0.1786515625 -2.4126985600
421 1 -1.6969278125 1.9207293750 -3.2395930960
422 1 -0.5899734375 1.5590725000 -2.4086704880
423 1 0.5407787500 2.0549431250 -3.2440485840
424 1 1.1118590625 1.9194393750 -3.9988781920
425 1 1.6760056250 1.3337525000 -2.4922367920
426 1 2.2270640625 -2.1009396875 -4.8293863360
427 1 2.2143521875 -0.9728212500 -4.8569352400
428 1 2.2001890625 -0.3992281250 -4.0546106480
429 1 2.2143790625 1.1928603125 -4.8549665360
430 1 1.7220693750 1.9223284375 -3.2557960480
431 1 -0.5838190625 -1.7331150000 -2.3561112720
432 1 0.4771521875 -0.7494093750 -2.4389652160
433 1 0.4762653125 0.3388668750 -2.3580281680
434 1 1.5862700000 -0.9651081250 -2.3928820000
435 1 -0.5704353125 2.0535187500 -3.2644609360
436 1 -0.5551568750 -1.2209850000 -6.4676345363
437 1 0.5093484375 -0.2133471875 -6.4510921383
438 1 2.1714462500 0.6513425000 -3.9812634720
439 1 1.7080540625 1.9268165625 -6.4569017579
440 1 6.6774162500 0.1410668750 -3.9771835920
441 1 6.6672978125 1.2315468750 -4.0597007840
442 1 2.2502168750 -1.5296040625 -4.0486009200
443 1 2.2491418750 1.7461896875 -4.0603872400
444 1 6.7098812500 -2.1113134375 -4.1119750560
445 1 6.6837587500 -1.5208293750 -4.8454597680
446 1 6.7000584375 -0.3845812500 -4.8534900080
447 1 2.2505125000 0.1414296875 -4.8924107680
448 1 2.7757843750 -2.2190150000 -5.6907046976
449 1 3.9253221875 -1.8039037500 -6.4509631364
450 1 3.3605843750 -1.6812865625 -4.0611773120
451 1 5.0427712500 -1.9588918750 -6.4462176531
452 1 4.4225903125 -1.9134328125 -4.0225933040
453 1 5.5769253125 -2.0846937500 -4.0572787600
454 1 2.7315212500 -0.5286715625 -3.1835368400
455 1 2.7584365625 -1.1101659375 -5.6659586064
456 1 3.3619012500 -1.1449556250 -4.9104010960
457 1 3.8992400000 -0.6379721875 -6.4508202758
458 1 3.2815584375 -0.6219546875 -4.0104831840
459 1 3.9231318750 -1.2306062500 -5.6880560136
460 1 4.4836906250 -1.3590687500 -4.8635019040
461 1 4.4403681250 -0.8131568750 -4.0338615440
462 1 5.0511293750 -1.3714178125 -5.7011038584
463 1 5.5491231250 -1.4900843750 -4.8038449920
464 1 5.6272756250 -0.9021400000 -4.0727434480
465 1 6.1163871875 -1.5467906250 -5.6472313096
466 1 2.7967871875 0.0594609375 -5.6990082248
467 1 3.3470528125 -0.0873034375 -4.8599012480
468 1 3.3440831250 0.4683640625 -4.0443656160
469 1 3.9196918750 -0.0687865625 -5.6731443760
470 1 4.4435528125 -0.2377900000 -4.8044925920
471 1 4.4998693750 0.3717081250 -4.1106410000
472 1 5.0005909375 -0.3076381250 -5.6262089184
473 1 5.6043243750 -0.3342846875 -4.8614295840
474 1 6.1153256250 0.1214481250 -6.4326427914
475 1 5.5660543750 0.2296468750 -4.0522015760
476 1 6.1388546875 -0.4711321875 -5.6918198648
477 1 2.7974859375 1.2124521875 -5.6699633648
478 1 3.3137143750 1.0537284375 -4.7919939120
479 1 3.9383431250 1.5194990625 -6.4759700260
480 1 3.3827293750 1.6691256250 -4.1099415920
481 1 3.8563071875 0.9799296875 -5.6283382272
482 1 4.4550553125 0.9630656250 -4.8595256400
483 1 4.4735184375 1.5103750000 -4.0338485920
484 1 5.0058046875 0.7746315625 -5.6392593536
485 1 5.6312665625 0.7601862500 -4.9266558560
486 1 5.5579784375 1.2701662500 -4.0222824560
487 1 6.1977915625 0.7216878125 -5.6976197704
488 1 2.8080746875 -1.6705231250 -3.2206831760
489 1 2.7224375000 -2.2389293750 -2.4336678480
490 1 3.8822281250 -1.8121946875 -3.1677483520
491 1 5.0214996875 -1.9345968750 -3.2635802000
492 1 6.1626121875 -2.0777600000 -3.2716752000
493 1 2.8158146875 0.0820896875 -2.4907084560
494 1 2.7695762500 -1.1081368750 -2.4144859360
495 1 3.8879121875 -0.6253409375 -3.2628289840
496 1 3.9390687500 -1.1949296875 -2.4859809760
497 1 5.0584796875 -0.8375862500 -3.3058166720
498 1 5.0213115625 -1.3911171875 -2.4359085440
499 1 6.1785087500 -1.0318925000 -3.2512628480
500 1 6.1045084375 -1.5534556250 -2.3818080400
501 1 2.8473525000 1.7366087500 -3.2716881520
502 1 2.7988028125 0.6552931250 -3.2691236560
503 1 3.9566450000 0.4645478125 -3.2811819680
504 1 3.8832896875 -0.0840784375 -2.4300671920
505 1 5.0100375000 0.2276850000 -3.1956858160
506 1 4.9926225000 -0.3542528125 -2.3986326880
507 1 6.1063225000 0.1165434375 -3.2019286800
508 1 6.1432084375 -0.4727312500 -2.4539895360
509 1 3.9053809375 1.5074725000 -3.2167069120
510 1 3.8554875000 0.9776587500 -2.3698144880
511 1 5.0222387500 1.3708534375 -3.1862826640
512 1 5.0344265625 0.7954462500 -2.4192263680
513 1 6.1392981250 1.2982909375 -3.2164219680
514 1 6.2007612500 0.7075112500 -2.4723166160
515 1 6.7060515625 1.7960025000 -4.8502390560
516 1 3.9133090625 2.0796815625 -5.6536567968
517 1 4.5172575000 2.0420028125 -4.9078495520
518 1 5.0735162500 1.9739015625 -5.7226326728
519 1 5.5929025000 1.8270431250 -4.8463275520
520 1 6.1566996875 1.8526550000 -5.6797913424
521 1 3.9378459375 2.0868840625 -2.4387709360
522 1 5.0402181250 1.9791959375 -2.4530828960
523 1 6.1373496875 1.8446596875 -2.3827405840
524 1 2.7334696875 1.1909387500 -2.4256505600
525 1 2.7992193750 -0.5266693750 -6.4413022396
526 1 2.7983862500 0.6388590625 -6.4686928702
527 1 5.0073365625 1.3542715625 -6.4114254726
528 1 -3.9412590625 6.6843634375 -2.5050592720
529 1 -3.4057612500 2.2571371875 -4.8228973840
530 1 -6.6780711938 6.3278934375 -4.8350334080
531 1 -6.1114247188 6.3348003125 -5.6480032488
532 1 -5.5590910625 6.3941403125 -4.8130538640
533 1 -5.0292800000 6.5578762500 -5.6692587760
534 1 -4.4521259375 6.5400446875 -4.8699131440
535 1 -3.9246637500 6.7080940625 -5.7382346520
536 1 -6.1293745313 6.3227334375 -2.4174778480
537 1 -5.0274659375 6.5396415625 -2.4501168880
538 1 -3.9021828125 2.7512609375 -3.3186132480
539 1 -6.7003547344 2.3657121875 -4.0796727680
540 1 -5.6494421250 2.5108506250 -4.0639231360
541 1 -4.5356400000 2.7035981250 -4.0099392000
542 1 -2.8601450000 2.4141006250 -5.6416192080
543 1 -6.6848346906 3.4816696875 -4.0263493840
544 1 -6.1884578750 2.9560350000 -5.6527682896
545 1 -5.6044789063 3.0626750000 -4.8988867680
546 1 -5.5638103125 3.6171600000 -4.0820429840
547 1 -5.0119993750 3.1433537500 -5.6342223208
548 1 -4.4178603125 3.2357634375 -4.8755343120
549 1 -4.5111165625 3.8098134375 -4.1001628320
550 1 -3.8582018750 3.3053159375 -5.6760767088
551 1 -3.3312503125 3.4224237500 -4.7996874000
552 1 -3.4236600000 3.9942028125 -4.0330714720
553 1 -2.7933337500 3.4796540625 -5.6890312992
554 1 -6.6986452156 4.0284415625 -4.8778527200
555 1 -6.1518514375 4.1182309375 -5.7157033528
556 1 -5.6184888438 4.1880656250 -4.8751457520
557 1 -5.0042728125 4.8133393750 -6.4591609753
558 1 -5.5607747813 4.7258746875 -4.0110919280
559 1 -5.0385518750 4.2385503125 -5.6785246368
560 1 -4.4866737500 4.3970590625 -4.8834609360
561 1 -4.4271993750 4.9482921875 -4.0559188000
562 1 -3.8940262500 4.4078090625 -5.6173562264
563 1 -3.3010696875 4.5393218750 -4.8755861200
564 1 -2.7991253125 5.1682775000 -6.4712757062
565 1 -3.3649784375 5.1087090625 -4.1012508000
566 1 -2.7390462500 4.5988096875 -5.6586731064
567 1 -6.1441195000 5.2662503125 -5.6625664776
568 1 -5.5660382500 5.2647050000 -4.8620124240
569 1 -5.0440881250 5.9948181250 -6.4758133617
570 1 -5.6056681250 5.8131162500 -4.0449225520
571 1 -5.0364959375 5.4053956250 -5.7272565368
572 1 -4.5016968750 5.5000762500 -4.8777102480
573 1 -4.4382853125 6.0268128125 -3.9755775440
574 1 -3.9256984375 5.5127343750 -5.7047964736
575 1 -3.3944334375 5.6911171875 -4.8782024240
576 1 -3.2933565625 6.2388296875 -4.0473057200
577 1 -2.7963168750 5.7063150000 -5.6278654792
578 1 -6.1923964063 2.4184946875 -3.1768924640
579 1 -5.0925975000 2.5667909375 -3.2355650240
580 1 -3.3189684375 2.8230575000 -4.0491319520
581 1 -2.7418009375 2.9593406250 -3.2544101840
582 1 -6.0968651875 3.5407946875 -3.2397744240
583 1 -6.1737196250 3.0035096875 -2.4076213760
584 1 -5.0336606250 3.7073525000 -3.1819048880
585 1 -4.9757853125 3.1257237500 -2.4193170320
586 1 -3.9790721875 3.8516040625 -3.2331170960
587 1 -3.8646787500 3.2716281250 -2.4545205680
588 1 -2.8189725000 4.0331178125 -3.3024362000
589 1 -2.8287415625 3.5128446875 -2.4254821840
590 1 -6.1412411875 4.6653521875 -3.2515996000
591 1 -6.2199123750 4.1061775000 -2.4427342480
592 1 -4.9688112500 4.8126809375 -3.2412898080
593 1 -5.0766337500 4.2792659375 -2.3932317040
594 1 -3.8859100000 4.9619312500 -3.1852335520
595 1 -3.8526790625 4.3979728125 -2.3904858800
596 1 -2.8463581250 5.1606450000 -3.2271332720
597 1 -2.7259312500 4.5869578125 -2.4504795440
598 1 -6.2023804688 5.7835940625 -3.2803789440
599 1 -6.1130439375 5.2371581250 -2.4593387120
600 1 -5.0438193750 5.9900209375 -3.2632304960
601 1 -5.0573375000 5.4044953125 -2.4984148960
602 1 -3.8376425000 6.1027481250 -3.2415747520
603 1 -3.9623290625 5.5556000000 -2.4283316240
604 1 -2.7291025000 6.2610418750 -3.2113706880
605 1 -2.7635562500 5.7060328125 -2.3740627440
606 1 -2.2771187500 5.2739903125 -4.0372938240
607 1 -2.8422059375 2.4104993750 -2.4072457680
608 1 -2.2553096875 2.4211956250 -4.8995991280
609 1 -2.2613028125 3.5788496875 -4.8174704960
610 1 -6.7075931125 4.5774575000 -4.0598303040
611 1 -6.6783160250 5.1580515625 -4.8323652960
612 1 -6.1341085625 2.4059978125 -6.4638526430
613 1 -5.0741075000 2.5764659375 -6.4514344597
614 1 -6.1525636250 3.5204637500 -6.4407532043
615 1 -6.1611246563 4.7084596875 -6.4675792442
616 1 -3.8873209375 6.1004100000 -6.4466950638
617 1 -2.1894793750 2.9737590625 -4.0822631680
618 1 -2.2253978125 4.1377421875 -4.0171664160
619 1 -2.1899362500 4.7073175000 -4.8218353200
620 1 -2.2230193750 5.8265940625 -4.8667917120
621 1 1.0881687500 2.4789096875 -4.8514954000
622 1 -1.6579725000 3.1384759375 -6.4601839242
623 1 -1.6846862500 2.5845015625 -5.6530869088
624 1 -1.0777143750 2.6445403125 -4.9082640160
625 1 -1.1333590625 3.2019681250 -4.0516834960
626 1 -0.5223693750 2.6321643750 -5.7145843000
627 1 0.0202906250 2.6948771875 -4.8620512800
628 1 -0.0151306250 3.2440275000 -4.0057686560
629 1 0.5638643750 2.6093206250 -5.7271697584
630 1 1.6486603125 2.5002215625 -5.6792629008
631 1 1.0971584375 3.6246043750 -4.8230787120
632 1 -1.7232653125 3.7106984375 -5.6689103672
633 1 -1.1356165625 3.7396293750 -4.8936800640