ITEM: TIMESTEP
115000
ITEM: NUMBER OF ATOMS
2304
ITEM: BOX BOUNDS pp pp pp
-6.7187500000 6.7187500000
-6.7187500000 6.7187500000
-6.4760000000 6.4760000000
ITEM: ATOMS id type x y z
1 1 -6.1861022813 -6.4469456563 -5.6569284720
2 1 -5.6290130938 -6.3699286250 -4.8407711440
3 1 -5.6052932188 -5.7993898438 -4.0392495760
4 1 -5.0609925000 -6.2446051250 -5.6115783392
5 1 -4.4631850000 -6.3113303750 -4.8963093200
6 1 -3.9748125000 -5.2068431250 -5.7015986248
7 1 -4.5116271875 -5.7683586250 -4.0639490400
8 1 -3.8693012500 -6.3281783125 -5.6465707576
9 1 -3.3168721875 -6.3771593438 -4.8308499120
10 1 -2.8130600000 -5.9060594063 -6.4423069262
11 1 -3.3877281250 -5.8022574063 -4.0575637040
12 1 -2.7748840625 -6.5164027500 -5.6968581928
13 1 -6.1659957500 -5.3306428125 -5.6764600880
14 1 -5.6329704375 -5.2356800000 -4.8421440560
15 1 -5.6890572188 -4.6545618750 -4.0878195760
16 1 -5.0473668750 -5.1485378125 -5.6532254952
17 1 -4.4969668750 -5.1709381250 -4.8133776640
18 1 -4.5305740625 -4.5861515625 -4.0855529760
19 1 -3.3614040625 -4.7340178125 -3.9898765520
20 1 -2.8334178125 -5.3342709375 -5.6859409520
21 1 -6.6773349531 -3.7311637500 -4.0709949280
22 1 -6.2275085938 -4.1885762500 -5.6140495808
23 1 -5.0278959375 -4.1162287500 -5.6778563136
24 1 -5.5871942500 -3.5419637500 -4.0778983440
25 1 -4.4653350000 -4.0109325000 -4.8493194640
26 1 -3.9347150000 -4.0984106250 -5.7113294624
27 1 -4.5002321875 -3.4658940625 -4.0168426160
28 1 -3.3931971875 -4.1906456250 -4.8691748800
29 1 -3.4116200000 -5.2489965625 -4.8845100480
30 1 -3.9119115625 -3.5180450000 -3.2465871760
31 1 -2.8270753125 -4.2019734375 -5.6993941944
32 1 -6.2630857188 -3.0619762500 -5.6599139080
33 1 -5.6676539688 -2.9873846875 -4.8695116320
34 1 -5.5936187188 -4.0969190625 -4.9061398880
35 1 -5.6008790000 -2.4430181250 -4.0212203920
36 1 -5.0842528125 -2.9382437500 -5.6280118368
37 1 -4.4851284375 -2.9445190625 -4.8993659920
38 1 -4.4706696875 -2.4009453125 -4.0626408880
39 1 -3.8968212500 -2.9626059375 -5.6724941856
40 1 -3.3700309375 -3.0674990625 -4.8081321040
41 1 -3.3664162500 -2.4620187500 -4.0912648080
42 1 -2.8310931250 -3.1396584375 -5.6487557600
43 1 -6.1703656250 -5.8947625000 -3.2686055760
44 1 -6.1691965625 -6.4146902813 -2.3911852880
45 1 -5.0469234375 -5.6565492188 -3.2209681200
46 1 -5.0624437500 -6.2556117813 -2.4747645440
47 1 -3.9533931250 -5.7645074375 -3.2351894160
48 1 -3.9148140625 -6.3026443750 -2.3920271680
49 1 -2.8447053125 -5.9638231875 -3.2408105840
50 1 -2.7538140625 -6.4965354063 -2.3963013280
51 1 -6.1810726250 -4.7453725000 -3.2136502400
52 1 -6.1984204375 -5.3270281250 -2.4664364080
53 1 -5.0912671875 -4.6013225000 -3.2809229280
54 1 -5.0601728125 -5.1336759375 -2.3781167200
55 1 -3.9841246875 -4.6701359375 -3.2672974240
56 1 -3.8988100000 -5.1969665625 -2.4200682480
57 1 -2.8594462500 -4.2062062500 -2.4380715280
58 1 -6.1739950938 -3.6036821875 -3.2365364240
59 1 -6.1568071875 -4.1752596875 -2.4412447680
60 1 -5.0735834375 -3.5128043750 -3.2151656240
61 1 -5.0203978125 -4.0617665625 -2.4045517520
62 1 -3.9388537500 -4.0945406250 -2.4795826880
63 1 -3.3610950000 -3.6497190625 -4.0444821840
64 1 -6.2000423438 -2.5235356250 -3.2824642160
65 1 -6.1544945938 -3.0495600000 -2.4100952080
66 1 -5.0231256250 -2.3494796875 -3.2419633120
67 1 -5.0491675000 -2.9176306250 -2.4630041280
68 1 -3.9144915625 -2.3954762500 -3.2315887600
69 1 -3.9453709375 -2.9658175000 -2.4308961200
70 1 -2.8494353125 -2.6118200000 -3.2270814640
71 1 -2.7699928125 -3.6643390625 -3.2594355600
72 1 -2.2811365625 -5.4899766250 -4.8860254320
73 1 -2.7761875000 -4.7755531250 -3.2131839680
74 1 -2.2943053125 -4.3582112500 -4.8145303920
75 1 -2.2508081250 -3.1926425000 -4.8600178160
76 1 -2.2672556250 -2.6294768750 -4.0415032240
77 1 -2.8075237500 -5.3739384375 -2.4943091120
78 1 -2.8082628125 -3.1401959375 -2.3608517040
79 1 -2.2494240625 -4.9483862500 -4.0594028880
80 1 -2.2493031250 -6.0155736875 -3.9976218480
81 1 -6.1368229375 -5.9214010000 -6.4693233347
82 1 -6.1578391875 -4.7513521875 -6.4602741997
83 1 -6.1601531250 -3.6067593750 -6.4169318859
84 1 -5.0801812500 -3.4809171875 -6.4030481190
85 1 -3.8892693750 -2.3946028125 -6.4626599581
86 1 -2.7957659375 -2.5658503125 -6.4433854393
87 1 -5.0500409375 -5.7355442500 -6.4756527025
88 1 -2.2297381250 -6.5616521875 -4.8561581200
89 1 -1.6512806250 -4.9584912500 -3.2679968320
90 1 -1.6794590625 -5.4982514375 -5.6616106200
91 1 -1.7034853125 -6.0572299375 -6.4738290505
92 1 -1.6671503125 -6.6371974094 -5.6813624200
93 1 -1.1348103125 -6.2400014375 -4.0400266960
94 1 0.6099550000 -6.4500080625 -6.4485044582
95 1 0.0230050000 -6.3574855000 -4.0749711920
96 1 1.1321900000 -6.4936624688 -4.0656846080
97 1 -1.1596696875 -5.6507657188 -4.7974855600
98 1 -0.6152762500 -5.7186197188 -5.6568157896
99 1 -0.5825425000 -4.6220296875 -5.6313508624
100 1 -1.1098703125 -5.0466143750 -4.0974429120
101 1 -0.5309425000 -5.1572587500 -6.4603770386
102 1 -0.0458353125 -5.7671788125 -4.8304743040
103 1 0.0072696875 -5.1925993750 -4.0525124240
104 1 0.5079643750 -5.9058995000 -5.6315904744
105 1 1.1109184375 -5.9435890000 -4.9081733520
106 1 1.0936378125 -5.4306164688 -4.0312193360
107 1 -1.6482303125 -3.8809112500 -6.4516033538
108 1 -2.2160721875 -3.7726587500 -4.0913684240
109 1 -1.7532846875 -4.4398978125 -5.6516738456
110 1 -1.1500753125 -4.4737200000 -4.8666103840
111 1 -0.6011265625 -4.0484903125 -6.4225693734
112 1 -1.1224746875 -3.9091568750 -4.0615270160
113 1 0.0328546875 -4.6690340625 -4.9162813040
114 1 1.0957609375 -4.2959687500 -4.0096024480
115 1 -0.0634250000 -4.1414643750 -4.0338485920
116 1 0.5383331250 -5.3427634375 -6.4309254858
117 1 0.6216053125 -4.7667112500 -5.6762528560
118 1 1.1122621875 -3.7374659375 -4.8116291440
119 1 1.1530181250 -4.8473496875 -4.8180533360
120 1 -1.6884353125 -3.3300006250 -5.6330087184
121 1 -1.0760481250 -3.3783890625 -4.9115408720
122 1 -1.1768293750 -2.8621203125 -4.0048749680
123 1 -0.4987059375 -3.4631528125 -5.6810166016
124 1 0.0427581250 -3.5859043750 -4.8319378800
125 1 0.5801775000 -3.6554434375 -5.7146503552
126 1 1.1808606250 -3.1622334375 -4.0433812640
127 1 1.7373343750 -3.1943625000 -6.4305949507
128 1 1.7222709375 -3.2125434375 -3.2184683840
129 1 1.6438900000 -3.7975315625 -5.6729241920
130 1 -1.6697303125 -6.0655947813 -3.2216157200
131 1 -0.5366131250 -6.2395956250 -3.2717658640
132 1 0.5586371875 -6.4682924688 -3.2312131520
133 1 1.6519390625 -6.6079071531 -3.1765816160
134 1 -1.7152162500 -5.4966308750 -2.4314271520
135 1 -0.5738753125 -5.2028118750 -3.2408882960
136 1 -0.5960203125 -5.7194622500 -2.3590902320
137 1 0.5398515625 -5.3509737500 -3.1969680640
138 1 0.5508434375 -5.9182122813 -2.4037616800
139 1 1.6790290625 -5.4367708438 -3.2377150560
140 1 1.7070193750 -6.0066686563 -2.4617736880
141 1 -1.6985806250 -3.9175956250 -3.2245687760
142 1 -1.7015234375 -4.4344287500 -2.3535208720
143 1 -0.6009250000 -4.0655828125 -3.1867359840
144 1 -0.5443128125 -4.6476012500 -2.4251583840
145 1 0.5254734375 -4.1773962500 -3.2440874400
146 1 0.5919084375 -4.7634325000 -2.4783781520
147 1 1.7149206250 -4.3438062500 -3.2976051040
148 1 1.6736406250 -4.8631118750 -2.4310774480
149 1 -1.6636834375 -3.3430215625 -2.4308702160
150 1 0.0006315625 -3.0299546875 -4.0296391920
151 1 -0.5341003125 -3.4681918750 -2.4715265440
152 1 0.5854718750 -3.0801303125 -3.2746153040
153 1 0.5881593750 -3.6262303125 -2.4366468080
154 1 2.1820350000 -6.5679610938 -4.0241216400
155 1 1.7118568750 -6.0027435625 -5.6226898600
156 1 2.2366046875 -5.4715685938 -4.0532636400
157 1 -0.5711743750 -2.3518312500 -5.7241506472
158 1 -1.1018481250 -2.3005537500 -4.8064094880
159 1 -0.0538978125 -2.4494681250 -4.8092200720
160 1 0.4890846875 -2.5493087500 -5.6597351704
161 1 1.0687650000 -2.6242362500 -4.8890302960
162 1 1.6689106250 -2.6429815625 -5.6152372792
163 1 -1.7225531250 -2.7689715625 -3.1975638560
164 1 -0.5646303125 -2.8952034375 -3.2529984160
165 1 0.5200446875 -2.5352934375 -2.4214023040
166 1 1.6586309375 -3.7977331250 -2.4543651440
167 1 -0.5811718750 -2.3367006250 -2.4403640320
168 1 1.6514956250 -2.6616596875 -2.4034378800
169 1 1.6808296875 -4.9004009375 -5.7217558224
170 1 2.2069481250 -4.8844371875 -4.8201127040
171 1 2.2112750000 -3.7738815625 -4.8648230080
172 1 -1.6613856250 -6.6607458219 -2.4795308800
173 1 -1.7490653125 -2.7697240625 -6.4352633696
174 1 1.6564003125 -6.5710046875 -6.4240544498
175 1 6.7133884375 -5.3904141563 -4.9096110240
176 1 2.2765543750 -3.2082703125 -4.0523310960
177 1 6.6647850000 -5.8908548750 -4.0397417520
178 1 6.1170187500 -5.4276508125 -5.6916009760
179 1 6.6686146875 -4.8429287500 -4.0176974480
180 1 6.6257625000 -4.2950012500 -4.8942888080
181 1 6.6413768750 -3.1788421875 -4.8050495280
182 1 6.6632128125 -2.5738053125 -4.0551805360
183 1 3.3506271875 -6.4688756563 -4.0078927840
184 1 4.5305471875 -6.3003438750 -4.0810327280
185 1 5.6095112500 -6.6092079031 -4.8656778400
186 1 5.5677475000 -5.9880066563 -4.0604649520
187 1 6.1688606250 -6.5645237813 -5.6680788488
188 1 2.7502396875 -4.8808493750 -5.6338233992
189 1 2.2862428125 -6.0229320625 -4.8605747520
190 1 3.3875803125 -5.8996994375 -4.8057748400
191 1 2.7966931250 -5.4022512500 -3.2207220320
192 1 3.9261956250 -5.8384499688 -5.7192664480
193 1 4.4277100000 -5.7443847813 -4.8458353760
194 1 5.1129553125 -4.4493175000 -5.6826550296
195 1 4.4880040625 -5.1531200000 -4.0046677360
196 1 5.0219834375 -5.6173641250 -5.6605705744
197 1 5.5739690625 -5.4638017188 -4.8279745680
198 1 6.1584062500 -6.0115316875 -6.4648061304
199 1 5.6166331250 -4.6293800000 -4.5014157920
200 1 6.6999375000 -6.4801443438 -4.8039615600
201 1 2.3152678125 -4.3116234375 -4.0362835680
202 1 3.3857125000 -4.7891921875 -4.9219542800
203 1 3.3386678125 -5.3043053125 -4.0467099280
204 1 3.4053581250 -4.2194421875 -4.1144100320
205 1 3.9875781250 -4.7044015625 -5.6070930616
206 1 4.5841225000 -4.6296353125 -4.8319767360
207 1 4.4089512500 -4.0204328125 -4.0798281920
208 1 6.0674881250 -4.3298043750 -5.6865587624
209 1 5.0022303125 -3.9101915625 -6.4001999742
210 1 5.5938028125 -3.8644637500 -4.0415679840
211 1 2.8549178125 -2.5874309375 -5.6589334416
212 1 2.7916943750 -3.7608875000 -5.6599113176
213 1 3.3634062500 -3.6319412500 -4.8908176720
214 1 3.3927403125 -3.1001925000 -4.0467746880
215 1 4.6162918750 -3.5110843750 -5.0147424080
216 1 4.4465493750 -2.3746884375 -4.8043112640
217 1 5.0534271875 -3.0062240625 -6.3784705334
218 1 5.5239546875 -3.4619837500 -4.9908071120
219 1 6.0687646875 -3.2312753125 -5.6661580672
220 1 5.5937221875 -2.8208268750 -4.1121175280
221 1 2.7813475000 -6.5353079688 -3.2611970320
222 1 3.9583246875 -6.3629317188 -3.2882149040
223 1 5.0229912500 -6.1989324063 -3.1641865520
224 1 6.1226356250 -6.0408361875 -3.2264338640
225 1 6.1712390625 -6.5937686188 -2.4191745600
226 1 2.8380134375 -5.9849375313 -2.4431228080
227 1 3.9218284375 -5.2783306250 -3.2655618560
228 1 3.9065768750 -5.8196535938 -2.4163898800
229 1 5.1401931250 -5.0853546875 -3.3855362320
230 1 5.0103062500 -5.5917253750 -2.4304687040
231 1 6.0742740625 -4.9034646875 -3.3054799200
232 1 6.1785625000 -5.4581969375 -2.4386932240
233 1 2.8717415625 -4.2888737500 -3.2282082880
234 1 2.7879453125 -4.8460865625 -2.4109629920
235 1 3.9171253125 -4.1380243750 -3.1795735280
236 1 3.9897012500 -4.7340715625 -2.4470602160
237 1 5.0015718750 -4.0157162500 -3.2707685600
238 1 5.0578078125 -4.5612115625 -2.4398589040
239 1 6.1772187500 -3.7849540625 -3.2541640960
240 1 6.1565115625 -4.3612346875 -2.4468788880
241 1 2.8448262500 -3.1801725000 -3.2458877680
242 1 2.7349075000 -3.7381512500 -2.4152242000
243 1 6.1123021875 -2.6811575000 -3.2317053280
244 1 3.9046015625 -3.5627246875 -2.4030622720
245 1 4.5034840625 -2.9915100000 -4.0754374640
246 1 5.0819146875 -3.4586243750 -2.4701147760
247 1 5.0433221875 -2.8518540625 -3.2278326800
248 1 6.1629346875 -3.2571828125 -2.4277228800
249 1 2.2708031250 -2.6710793750 -4.8984464000
250 1 3.4094834375 -2.5276340625 -4.8407970480
251 1 3.9739928125 -3.5785003125 -5.6121572936
252 1 3.9380743750 -2.4818121875 -5.7260662480
253 1 2.8060053125 -2.6199093750 -2.4384730400
254 1 3.9607165625 -3.0103896875 -3.2219783760
255 1 4.9968956250 -2.3059018750 -2.3992802880
256 1 3.8841765625 -2.4449934375 -2.4324115040
257 1 3.8857621875 -5.2154700000 -6.4406196692
258 1 5.0119725000 -5.0760425000 -6.4750942304
259 1 2.8499728125 -5.9765807500 -5.6649625976
260 1 5.0090296875 -2.4765312500 -5.6522553904
261 1 2.8900837500 -4.3063021875 -6.4483893150
262 1 2.7968006250 -3.1713306250 -6.4331972666
263 1 3.9261687500 -4.1379168750 -6.4465329048
264 1 -6.6817738969 -2.0337790625 -4.8886287840
265 1 -6.1115685000 -1.9506143750 -5.7069335536
266 1 -5.6063682188 -1.8655550000 -4.8192708240
267 1 -5.6249899063 -1.3035853125 -4.0064680640
268 1 -5.0540856250 -1.8293678125 -5.7148912624
269 1 -4.5424796875 -1.8071959375 -4.8158126400
270 1 -4.4572187500 -1.2286981250 -4.0624207040
271 1 -3.9761831250 -1.8541196875 -5.6117052688
272 1 -3.3602618750 -1.8990009375 -4.8907658640
273 1 -3.3807406250 -1.3567709375 -4.0530305040
274 1 -2.7774237500 -2.0170359375 -5.6219036736
275 1 -6.6744046375 -0.3449003125 -4.0523829040
276 1 -6.1923923750 -0.8379625000 -5.6294520992
277 1 -5.6034912500 -0.7850993750 -4.8790443040
278 1 -5.0725084375 -0.1242431250 -6.4415322671
279 1 -5.5897890313 -0.2074884375 -4.0974429120
280 1 -5.0382696875 -0.7158693750 -5.6545893408
281 1 -4.4660875000 -0.6652100000 -4.8575828400
282 1 -3.9883843750 -0.1771465625 -6.4461123534
283 1 -4.5460406250 -0.1178065625 -4.0128015920
284 1 -3.9065365625 -0.7432281250 -5.6556863752
285 1 -3.3356712500 -0.7854218750 -4.8596940160
286 1 -3.3987334375 -0.2664656250 -3.9766396080
287 1 -2.7792109375 -0.8676996875 -5.6973969960
288 1 -6.1511513438 0.8154412500 -6.4648525244
289 1 -6.1963564375 0.2560918750 -5.6437575832
290 1 -5.6343786875 0.3803215625 -4.8629061120
291 1 -5.5746624375 0.9222021875 -4.0530175520
292 1 -5.0418037500 0.4297043750 -5.6066747120
293 1 -4.4445337500 0.4183900000 -4.8783189920
294 1 -3.8901831250 1.0001800000 -6.4681444177
295 1 -4.4698634375 0.9475050000 -4.0169980400
296 1 -3.8942278125 0.4120475000 -5.7132217496
297 1 -3.3889240625 0.2908143750 -4.7906987120
298 1 -2.7338728125 0.8138018750 -6.4552797790
299 1 -3.3335615625 0.8798337500 -4.0195625360
300 1 -2.8531037500 0.2297946875 -5.6886803000
301 1 -6.1687289375 1.9729475000 -6.4596262111
302 1 -6.1197882188 1.3961965625 -5.6890701552
303 1 -5.5987773750 1.5269971875 -4.8063835840
304 1 -5.6169045625 2.0802190625 -3.9885813520
305 1 -5.0500275000 1.5300340625 -5.6799169768
306 1 -4.5233043750 1.5244037500 -4.8022648480
307 1 -4.4147428125 2.1124153125 -4.0498184080
308 1 -3.9757396875 1.5428131250 -5.6369241080
309 1 -3.3946081250 1.4068659375 -4.8742261600
310 1 -2.8214181250 1.8972406250 -6.4124100837
311 1 -2.8028878125 1.3413446875 -5.5909807736
312 1 -6.1883463438 -1.3753953125 -3.2230533920
313 1 -6.1402280000 -1.9620362500 -2.4619161600
314 1 -5.0288096875 -1.2440840625 -3.2637485760
315 1 -5.0916031250 -1.8019821875 -2.4249900080
316 1 -3.9373487500 -1.3329462500 -3.2018898240
317 1 -3.9440271875 -1.8667240625 -2.3540519040
318 1 -2.8468015625 -1.4593259375 -3.1906733920
319 1 -2.7713634375 -2.0414384375 -2.4341600240
320 1 -6.1336207813 -0.2578790625 -3.2026928480
321 1 -6.1995693438 -0.8341865625 -2.3918199360
322 1 -5.0917643750 -0.1282475000 -3.1624509840
323 1 -5.0248859375 -0.7321421875 -2.4056656240
324 1 -3.9699078125 -0.1892940625 -3.2267965200
325 1 -3.9024246875 -0.7486031250 -2.4185658160
326 1 -2.7816700000 -0.3084309375 -3.2665462080
327 1 -2.7972978125 -0.8612900000 -2.4547018960
328 1 -6.1327433125 0.8136540625 -3.2775683600
329 1 -6.2386509688 0.3013762500 -2.3747492000
330 1 -5.0306237500 1.0197450000 -3.2118240080
331 1 -5.0441015625 0.4577081250 -2.4196019760
332 1 -3.9005703125 0.9630387500 -3.2293221600
333 1 -3.9217209375 0.3766934375 -2.4455577840
334 1 -6.1992253438 1.9469728125 -3.2457712000
335 1 -6.1441289063 1.3726540625 -2.4502464080
336 1 -4.9945306250 2.0901225000 -3.2891733520
337 1 -5.0755318750 1.5862700000 -2.3922991600
338 1 -2.8247371875 1.9433043750 -3.1852335520
339 1 -3.9344731250 1.4983484375 -2.4132036880
340 1 -2.7753812500 0.7871956250 -3.2047004080
341 1 -2.7729893750 1.3611918750 -2.4210655520
342 1 -2.2605906250 -0.9985809375 -4.8029772080
343 1 -2.2922090625 1.7897271875 -4.0513467440
344 1 -3.3495118750 1.9759037500 -4.0666560080
345 1 -3.8957731250 2.0876096875 -3.1795994320
346 1 -2.8448262500 0.2282628125 -2.4070773920
347 1 -2.2972078125 -1.5697956250 -4.0005101440
348 1 -2.3138300000 0.1249284375 -4.8325207200
349 1 -6.6698576563 1.3333896875 -4.8699260960
350 1 -3.9153918750 -1.3061787500 -6.4542555348
351 1 -2.8633968750 -1.4667971875 -6.4426370727
352 1 -3.8601637500 2.0965321875 -6.4534834661
353 1 -2.1849912500 -2.0995556250 -4.8879811840
354 1 -2.1909037500 1.2506818750 -4.8958689520
355 1 1.6720953125 -2.0958468750 -3.2171213760
356 1 -1.6899403125 0.6426215625 -3.1920981120
357 1 -1.6114787500 -2.1793475000 -5.6929609360
358 1 -1.1140359375 -1.7310187500 -4.0166224320
359 1 -0.5251643750 -1.7884640625 -3.2577647520
360 1 0.0534140625 -1.8837896875 -4.0349236080
361 1 1.6424118750 -2.1009665625 -6.4518645956
362 1 1.1243693750 -2.0730434375 -4.0802167520
363 1 -2.2071765625 -0.4382237500 -4.0171664160
364 1 -1.7372940625 -1.0592109375 -5.7107712312
365 1 -1.2088778125 -1.1687668750 -4.8308628640
366 1 -0.5402278125 -0.6599156250 -6.4046719113
367 1 -0.5491234375 -0.6558037500 -3.1884456480
368 1 -0.6408746875 -1.2319231250 -5.6294145384
369 1 -0.0583053125 -1.3451609375 -4.8949105040
370 1 0.5549418750 -1.4047159375 -5.6036685528
371 1 -0.0272781250 -0.7966287500 -4.0727952560
372 1 0.5888715625 -1.9573868750 -6.4130834582
373 1 1.1345012500 -1.4957953125 -4.8662347760
374 1 1.0754568750 -0.9384346875 -4.0602577200
375 1 1.7193550000 -1.5240678125 -5.6610433224
376 1 -2.2289587500 0.6962103125 -4.0656457520
377 1 -1.7414328125 0.0534678125 -5.6091407728
378 1 -1.0791656250 -0.5999709375 -4.0589366160
379 1 -1.1408303125 -0.0504712500 -4.8999747360
380 1 -0.5286850000 -0.0872496875 -5.6087340800
381 1 0.0340103125 -0.2081737500 -4.8338418240
382 1 -0.0267137500 0.3536078125 -4.0365944160
383 1 0.5931984375 -0.2975062500 -5.6602985824
384 1 1.1322571875 -0.3531778125 -4.8076658320
385 1 1.6705365625 -0.4401453125 -5.6616766752
386 1 1.1452243750 0.2146371875 -4.0126720720
387 1 -1.7279684375 1.7305618750 -6.4722204251
388 1 -1.5957031250 1.1896487500 -5.6291451368
389 1 -1.1698150000 0.4904418750 -4.0628740240
390 1 -1.0557171875 1.0791387500 -4.8043371680
391 1 -0.5127884375 1.0021015625 -5.6777254984
392 1 0.0162996875 0.9385153125 -4.7903101520
393 1 0.5892075000 1.3679509375 -6.4709689899
394 1 0.0268346875 1.5160859375 -4.0031264480
395 1 0.5419209375 0.7982009375 -5.6842533064
396 1 1.0885315625 0.7673618750 -4.8422735760
397 1 1.6421565625 0.6713778125 -5.6496339056
398 1 1.1278631250 1.8519696875 -4.8567539120
399 1 -1.6824421875 -1.5941846875 -3.2634895360
400 1 -0.5976193750 -1.2343821875 -2.4280207760
401 1 0.6011131250 -1.9680025000 -3.1995455120
402 1 1.6983387500 -1.5454468750 -2.3696590640
403 1 -1.7102712500 -1.0570878125 -2.4243812640
404 1 -0.5550896875 -0.0899103125 -2.3893979120
405 1 -0.5945421875 0.4506668750 -3.2507447680
406 1 0.5407384375 -0.8419400000 -3.2186238080
407 1 1.6332071875 -1.0277000000 -3.2498381280
408 1 -1.6339462500 1.2032071875 -2.3843077760
409 1 -1.6421028125 -0.4929546875 -3.2236232800
410 1 -0.5809165625 1.5210309375 -3.2563270800
411 1 -1.6977475000 0.0723340625 -2.4181513520
412 1 -0.5277309375 0.9756431250 -2.3927783840
413 1 0.5377150000 0.2198106250 -3.2559903280
414 1 1.6877231250 0.1111146875 -3.2045579360
415 1 1.7168018750 -0.4714412500 -2.4521892080
416 1 -1.7172050000 1.7360578125 -3.2719471920
417 1 0.5787800000 1.3625759375 -3.2208645040
418 1 1.1560012500 1.3077643750 -4.0033725360
419 1 1.6433256250 0.6960221875 -2.4466457520
420 1 2.2076603125 -2.1262693750 -4.0875087280
421 1 2.2164215625 -0.9589940625 -4.0257147360
422 1 1.7369446875 1.2701259375 -3.2308764000
423 1 -1.1247859375 2.2391981250 -4.8034693840
424 1 -0.5901750000 2.0936028125 -5.6419481888
425 1 -0.0029965625 2.0445425000 -4.8706384560
426 1 0.5589865625 1.9236050000 -5.6607609688
427 1 1.6799025000 1.8071556250 -5.7033432592
428 1 -0.5682046875 2.0814687500 -2.4609188560
429 1 0.5378628125 1.9483837500 -2.4401956560
430 1 2.2001890625 1.8519293750 -4.8310960000
431 1 -1.6681715625 -2.1723331250 -2.4772513280
432 1 0.5267231250 -1.4086934375 -2.3976742400
433 1 0.5800700000 -0.3106078125 -2.3796191520
434 1 0.5574546875 0.7927990625 -2.4594423280
435 1 -1.1285484375 1.6640865625 -4.0360374800
436 1 1.6577843750 1.8136862500 -2.3947082320
437 1 2.2173353125 0.7085728125 -4.8817642240
438 1 -1.5992640625 -0.4784287500 -6.4708181509
439 1 -1.6915125000 0.6149940625 -6.4094826726
440 1 -0.6242659375 0.4495112500 -6.4699079232
441 1 1.7354800000 1.2199234375 -6.4538804449
442 1 0.5122643750 -0.8592206250 -6.4512769634
443 1 5.5578843750 -2.2132100000 -4.8429600320
444 1 6.6952612500 0.8028771875 -4.0079057360
445 1 2.2426918750 -0.4020768750 -4.8454468160
446 1 2.2564653125 -1.5115306250 -4.8179108640
447 1 2.2479325000 0.1702128125 -4.0398065120
448 1 6.6997896875 -1.4821965625 -4.0804110320
449 1 6.6642475000 -0.9045453125 -4.8563653520
450 1 6.6754409375 0.2348337500 -4.8152945600
451 1 6.6772415625 1.8910325000 -4.0471373440
452 1 3.2944450000 -1.9924990625 -4.0043957440
453 1 4.4822662500 -1.8115900000 -3.9955365760
454 1 5.0669453125 -1.8425231250 -6.4474237434
455 1 5.6260796875 -1.6470881250 -4.0721606080
456 1 6.1528296875 -2.1498790625 -5.5968014024
457 1 2.7840081250 -0.9253600000 -3.2626088000
458 1 2.7983190625 -1.4987650000 -5.6668691320
459 1 3.3652471875 -1.4373690625 -4.8480890240
460 1 3.3885881250 -0.8878156250 -4.0429927040
461 1 3.9203100000 -1.3547553125 -5.6654120320
462 1 4.4979746875 -1.2991643750 -4.8794328640
463 1 4.4583340625 -0.7254503125 -4.0357007280
464 1 5.0494228125 -1.2800159375 -5.7062587544
465 1 5.5614050000 -1.0512559375 -4.8336604960
466 1 6.1727306250 -0.5281743750 -6.4617184772
467 1 5.5711203125 -0.5150862500 -3.9837243520
468 1 6.1227565625 -1.0786953125 -5.6730977488
469 1 2.7669021875 0.2186550000 -6.4358007481
470 1 2.7905521875 -0.3814503125 -5.6888965984
471 1 3.3305381250 -0.3279690625 -4.8448121680
472 1 3.3677600000 0.2402087500 -4.0499997360
473 1 3.9110784375 -0.2273087500 -5.6384628056
474 1 4.4957843750 -0.1914306250 -4.8837070240
475 1 4.4866334375 0.3685503125 -4.0687412800
476 1 6.1743431250 0.0793618750 -5.7189037920
477 1 5.6348543750 0.0167565625 -4.8653281360
478 1 5.5473628125 0.5713356250 -4.0218032320
479 1 6.1516068750 0.6770618750 -6.4358766468
480 1 2.8182065625 0.7649028125 -5.6093467096
481 1 3.4083546875 0.7892381250 -4.8593443120
482 1 3.8918493750 1.4949353125 -6.4426795553
483 1 3.3547928125 1.3745756250 -4.0785070880
484 1 3.9668306250 0.8946015625 -5.6872270856
485 1 4.4936612500 0.9657262500 -4.8280522800
486 1 5.0450690625 1.0591571875 -5.6650636232
487 1 4.4830053125 1.5356240625 -4.0257017840
488 1 5.0612075000 -0.0637743750 -5.6551670000
489 1 5.6108684375 1.1160246875 -4.8670766560
490 1 5.6147115625 1.6869975000 -4.0669409520
491 1 6.1752434375 1.2500234375 -5.6346652792
492 1 2.7292906250 -2.0407800000 -3.2004780560
493 1 3.8953834375 -1.9129625000 -3.2742785520
494 1 5.0828821875 -1.7722046875 -3.2718824320
495 1 6.1602337500 -1.5640443750 -3.2110986960
496 1 6.1893796875 -2.1380943750 -2.4117530640
497 1 2.8223318750 -0.3752556250 -2.3918069840
498 1 2.8428375000 -1.4545287500 -2.4230213040
499 1 3.9041043750 -0.7357568750 -3.1851687920
500 1 3.9385043750 -1.3469750000 -2.4730289760
501 1 5.0114350000 -0.6244809375 -3.2023560960
502 1 5.0063153125 -1.2277978125 -2.4434336560
503 1 6.1908309375 -0.4651390625 -3.2778662560
504 1 6.0978971875 -1.0063343750 -2.4171151920
505 1 2.8174137500 1.2869362500 -3.1972530080
506 1 2.8065428125 0.1737468750 -3.2406292560
507 1 3.9219225000 0.3725681250 -3.2428570000
508 1 3.9194231250 -0.1652946875 -2.4036062560
509 1 4.9916953125 0.5460462500 -3.1858034400
510 1 5.0901384375 -0.0367112500 -2.4469047920
511 1 6.1253365625 0.6674406250 -3.2477917120
512 1 6.1503034375 0.0903537500 -2.4595588960
513 1 2.2896156250 1.2630981250 -4.0686376640
514 1 3.9059990625 1.4429725000 -3.2510297120
515 1 3.9202965625 0.9152550000 -2.3701253360
516 1 5.0621078125 1.6574215625 -3.2463540400
517 1 5.0372350000 1.1291800000 -2.4002516880
518 1 6.1332915625 1.8284271875 -3.1821639280
519 1 6.2080175000 1.2281606250 -2.4510364800
520 1 2.7714575000 1.8607578125 -5.6252828504
521 1 3.3613906250 1.9321915625 -4.8702110400
522 1 3.9381818750 2.0383343750 -5.6131533024
523 1 4.5312325000 2.0708665625 -4.8681646240
524 1 3.9498859375 2.0054125000 -2.4340175520
525 1 5.0130206250 2.2277896875 -2.4007827200
526 1 2.7850965625 0.7049178125 -2.4069737760
527 1 2.8097946875 1.8612818750 -2.4275415520
528 1 5.0128996875 -0.6364671875 -6.4286657503
529 1 5.0286753125 1.6233843750 -6.4597526226
530 1 5.0880421875 2.2026615625 -5.6854785656
531 1 3.8939993750 -1.8915565625 -6.4659174120
532 1 3.9358706250 -0.7668646875 -6.4697498958
533 1 3.8863668750 0.3285200000 -6.4735862523
534 1 2.8482796875 1.3009515625 -6.4707167367
535 1 -3.9359243750 3.2112803125 -3.2252163760
536 1 -6.6967657125 2.4573021875 -4.8577253120
537 1 -6.1435779688 2.5387468750 -5.6652540176
538 1 -5.5898011250 2.6158781250 -4.8343987600
539 1 -5.5983218438 3.2017934375 -4.0383817920
540 1 -5.0462246875 2.6407912500 -5.6711769672
541 1 -4.5029331250 2.6638096875 -4.8533086800
542 1 -3.9449946875 3.1728625000 -6.4430151416
543 1 -4.5030675000 3.2336940625 -4.0509711360
544 1 -3.8971303125 2.6359806250 -5.5922138040
545 1 -3.3043081250 2.5519559375 -4.8667399040
546 1 -2.7289009375 2.4758862500 -5.6452392920
547 1 -6.1583229375 4.2327318750 -6.4397741626
548 1 -6.7106898113 4.1342887500 -4.0052635280
549 1 -6.1591560625 3.6413475000 -5.6696797160
550 1 -5.6033743438 3.7437009375 -4.8713249120
551 1 -5.6070951875 4.3000940625 -4.0517871120
552 1 -5.0167159375 3.7881118750 -5.6038861464
553 1 -4.4170943750 3.7954890625 -4.8597976320
554 1 -4.5259918750 4.3427446875 -4.0416068400
555 1 -3.8619912500 3.7538865625 -5.6686772312
556 1 -3.3266412500 3.6859734375 -4.7883155440
557 1 -3.3324462500 4.2632618750 -4.0061701680
558 1 -2.8017590625 3.5850981250 -5.6972622952
559 1 -6.6912742094 4.6505171875 -4.8947550800
560 1 -6.1267152500 4.8120225000 -5.6762334280
561 1 -5.5669345313 4.8672103125 -4.8542282720
562 1 -5.6109168125 5.4176103125 -4.0110789760
563 1 -5.0129131250 4.9058565625 -5.6849643712
564 1 -4.4779796875 4.9342768750 -4.8034564320
565 1 -3.9486496875 5.9687359375 -5.6374214648
566 1 -4.4289596875 5.5053840625 -4.0185911360
567 1 -3.9555700000 4.8631118750 -5.6764976488
568 1 -3.3991903125 4.8029387500 -4.8349556960
569 1 -2.7862387500 5.2478275000 -6.4454086712
570 1 -3.3079362500 5.3733606250 -4.0448059840
571 1 -2.8358903125 4.7021306250 -5.6207082040
572 1 -6.6983198938 6.3647121875 -4.0849183280
573 1 -6.1788312500 5.9516703125 -5.6376040880
574 1 -5.5740967188 5.9403425000 -4.8535677200
575 1 -5.5674975625 6.5186387500 -4.0362965200
576 1 -5.0624975000 6.0495893750 -5.7166825240
577 1 -4.5148118750 6.0377778125 -4.8569870480
578 1 -5.0156409375 6.6420621875 -6.4523056112
579 1 -4.4659396875 6.6007956250 -4.0213758160
580 1 -3.3570100000 5.9263271875 -4.8859995280
581 1 -3.3881715625 6.4707340625 -4.0732097200
582 1 -2.7695225000 5.8185718750 -5.6260470184
583 1 -6.1607631875 3.0921971875 -3.1905568240
584 1 -6.0989641250 2.4966875000 -2.4380197200
585 1 -5.0495571875 3.2150159375 -3.2111634560
586 1 -5.0323437500 2.6345562500 -2.4243683120
587 1 -3.9126909375 2.6699640625 -2.4025053360
588 1 -3.4001578125 3.0897918750 -4.0441972400
589 1 -2.8173331250 3.0272403125 -3.2777885440
590 1 -6.1341730625 4.2042846875 -3.1998304560
591 1 -6.1703535313 3.6521243750 -2.3921566880
592 1 -5.0600653125 4.3578215625 -3.1914893680
593 1 -4.9803406250 3.7783831250 -2.4276063120
594 1 -3.9440540625 4.2985890625 -3.2887588880
595 1 -3.8693550000 3.7740159375 -2.4036710160
596 1 -2.7591756250 4.1225712500 -3.2494107120
597 1 -2.8054946875 3.5707200000 -2.4247698240
598 1 -6.1562428125 5.3560800000 -3.2065136880
599 1 -6.1712834063 4.7893803125 -2.4282927680
600 1 -5.0171459375 5.4434237500 -3.2602774400
601 1 -5.0100643750 4.9307159375 -2.3903434080
602 1 -3.8778206250 5.4055971875 -3.2213048720
603 1 -3.9051390625 4.8332134375 -2.4314142000
604 1 -2.7638384375 5.2893090625 -3.1805967360
605 1 -2.8300987500 4.6909506250 -2.4589112960
606 1 -6.1668046875 6.4776275000 -3.2443982880
607 1 -6.1692019375 5.9292968750 -2.4274379360
608 1 -5.0315106250 6.5858665625 -3.2022265760
609 1 -5.0650775000 6.0094918750 -2.4358826400
610 1 -3.9023037500 6.5668793750 -3.1958930480
611 1 -3.9544009375 5.9824690625 -2.4481999920
612 1 -2.8303137500 6.3876365625 -3.2367048000
613 1 -2.7880125000 5.8575406250 -2.3782850960
614 1 -2.2751434375 3.5184212500 -4.8152557040
615 1 -2.2475293750 5.1749559375 -4.0658788880
616 1 -2.2584675000 6.3235800000 -4.0400655520
617 1 -2.7425400000 2.5078540625 -2.3954076400
618 1 -5.0495437500 5.4644668750 -6.4727190512
619 1 -6.6950621063 3.0126337500 -4.0413996080
620 1 -6.7062181741 5.2040615625 -4.0405965840
621 1 -5.0022168750 3.2351990625 -6.4366106366
622 1 -5.0440343750 4.3096078125 -6.4662594354
623 1 -2.7252459375 4.1650740625 -6.4720287484
624 1 -6.1926517188 5.3912325000 -6.4396686038
625 1 -3.9192081250 6.5366718750 -6.4362723304
626 1 -1.6559434375 2.2980006250 -5.6916139280
627 1 -2.1756118750 4.0850134375 -4.0285771280
628 1 -1.1298653125 6.6498021875 -4.8625175520
629 1 -0.5403487500 6.6568703125 -5.6491132352
630 1 -0.0149962500 6.4884984375 -4.7963069280
631 1 1.1059868750 6.3554134375 -4.8404343920
632 1 0.5363175000 6.4209750000 -5.6426229880
633 1 1.6677953125 6.2820043750 -5.6323960888
634 1 -0.5692796875 6.6532153125 -2.4353386560