ITEM: TIMESTEP
21000
ITEM: NUMBER OF ATOMS
2304
ITEM: BOX BOUNDS pp pp pp
-6.7187500000 6.7187500000
-6.7187500000 6.7187500000
-6.4760000000 6.4760000000
ITEM: ATOMS id type x y z
1 1 -5.5751891875 -6.4018547813 -4.0931169440
2 1 -4.5107268750 -6.5599093438 -4.0572528560
3 1 -2.8133153125 -6.4457685313 -6.4480927142
4 1 -3.3761718750 -6.5637820313 -3.9952516320
5 1 -6.7066924775 -5.1195262500 -4.1038152960
6 1 -6.1986421563 -5.8047030313 -5.5972611984
7 1 -5.5739529375 -5.8369342188 -4.9013217440
8 1 -5.0654403125 -5.4399958438 -6.4356722642
9 1 -5.6376077188 -5.3236015625 -4.0124389360
10 1 -5.0076321875 -6.0079049063 -5.6671242864
11 1 -4.4543296875 -5.9856362813 -4.8448639760
12 1 -4.4653887500 -5.4389168125 -4.0160266400
13 1 -3.8998178125 -5.9949430938 -5.6568727784
14 1 -3.3366790625 -6.0356506563 -4.8328833760
15 1 -3.3583537500 -5.4261081875 -4.0905006400
16 1 -2.8084778125 -5.8659619063 -5.6812665752
17 1 -6.6662135406 -4.5514962500 -4.8920092560
18 1 -6.1132119063 -4.6953178125 -5.6695709192
19 1 -5.5557908125 -4.7620484375 -4.8183123760
20 1 -5.5873030938 -4.1934809375 -4.0137859440
21 1 -5.0360525000 -4.8254734375 -5.7375132256
22 1 -4.5188162500 -4.8862243750 -4.8456540480
23 1 -3.8991056250 -4.3640296875 -6.4295817158
24 1 -4.4384062500 -4.3260284375 -4.0119079040
25 1 -3.9388806250 -4.9319656250 -5.6567600960
26 1 -3.3893943750 -4.8438290625 -4.8426232800
27 1 -3.3265875000 -4.2852456250 -4.0455701520
28 1 -2.8065025000 -4.7877140625 -5.5844542608
29 1 -6.6939044656 -3.4534912500 -4.8042853600
30 1 -6.6736868063 -2.8823840625 -4.0194459680
31 1 -6.1658479375 -3.5499590625 -5.7120897448
32 1 -5.6364144688 -3.6502296875 -4.8389449120
33 1 -5.0176565625 -3.1509862500 -6.4576663145
34 1 -5.5625512188 -3.0668675000 -4.0676274080
35 1 -5.0718768750 -3.7019103125 -5.6202691312
36 1 -4.4594090625 -3.8140865625 -4.8955840080
37 1 -4.5117615625 -3.2559062500 -4.0740256960
38 1 -3.8963240625 -3.7669881250 -5.6804402376
39 1 -3.3515812500 -3.7083468750 -4.8487366240
40 1 -3.3787115625 -3.1806831250 -3.9854728720
41 1 -2.7819118750 -3.7279253125 -5.6881389064
42 1 -6.1170792188 -6.3558313438 -3.2134559600
43 1 -5.0536153125 -6.5549455313 -3.1977063280
44 1 -3.9499396875 -6.5683413750 -3.2452919760
45 1 -2.7595518750 -6.4762971875 -3.2863757200
46 1 -6.1931825000 -5.2350753125 -3.2053868640
47 1 -6.1506756563 -5.7951946563 -2.3960163840
48 1 -5.0416021875 -5.4204819063 -3.2561587040
49 1 -5.0117843750 -5.9692465625 -2.4379420080
50 1 -3.8882346875 -5.4522736875 -3.2199449120
51 1 -3.8890543750 -6.0248966250 -2.4218038160
52 1 -2.8264840625 -5.3480040625 -3.2297754800
53 1 -2.7671306250 -5.9304471250 -2.4525000560
54 1 -6.1827724688 -4.1107193750 -3.2858446880
55 1 -6.1139146875 -4.6598159375 -2.4341988800
56 1 -5.0153587500 -4.2895590625 -3.2414322800
57 1 -5.0576331250 -4.8606662500 -2.4433559440
58 1 -3.8672050000 -4.3284740625 -3.2137150000
59 1 -3.9516731250 -4.8878503125 -2.4221794240
60 1 -2.7627634375 -4.2586528125 -3.2096998800
61 1 -2.7580871875 -4.7966903125 -2.3897605680
62 1 -6.1285440938 -3.0273881250 -3.2149195360
63 1 -6.1862608438 -3.5909568750 -2.4084762080
64 1 -5.0425965625 -3.1364737500 -3.1870856880
65 1 -5.0506859375 -3.7403818750 -2.4490418720
66 1 -3.9550862500 -3.1661840625 -3.2502266880
67 1 -3.9304821875 -3.7372509375 -2.4523834880
68 1 -2.7637578125 -3.1406796875 -3.2638262880
69 1 -2.8548237500 -3.6566662500 -2.4162344560
70 1 -2.2428665625 -5.8449698438 -4.8578418800
71 1 -6.1972755625 -2.4442812500 -5.6275598120
72 1 -5.6023598125 -2.5062012500 -4.9034847280
73 1 -5.0023915625 -2.5872831250 -5.6384472632
74 1 -4.4576084375 -2.6704478125 -4.8306944880
75 1 -3.9041312500 -2.6228925000 -5.6546281968
76 1 -3.3340721875 -2.6589990625 -4.8576864560
77 1 -2.7902162500 -2.5282387500 -5.7096068464
78 1 -6.1753939375 -2.4445231250 -2.4619809200
79 1 -5.0279900000 -2.5491878125 -2.4238113760
80 1 -3.9104200000 -2.6361553125 -2.3874162560
81 1 -2.8050646875 -2.5593734375 -2.4886620400
82 1 -2.2514800000 -2.4646793750 -4.8835904560
83 1 -2.2559412500 -5.2876696875 -4.0223213120
84 1 -2.2619746875 -3.5475134375 -4.8324948160
85 1 -6.6645671781 -6.2942674375 -4.0525124240
86 1 -5.0469234375 -6.5694620625 -6.4692388617
87 1 -3.9506384375 -6.5655920625 -6.4701239237
88 1 -6.1817552500 -5.2712356250 -6.4584412326
89 1 -6.1872847813 -4.1336437500 -6.4749950582
90 1 -3.9494425000 -3.2010006250 -6.4570097776
91 1 -2.8119850000 -3.1335175000 -6.4234499799
92 1 -2.2361075000 -4.1530878125 -4.1049809760
93 1 -2.1913068750 -6.3944574375 -4.0325792960
94 1 -1.1076262500 -6.2096340313 -4.1068201600
95 1 -0.5562587500 -6.6774245813 -5.6746506936
96 1 0.0130343750 -6.6168041219 -4.8356162480
97 1 0.5583818750 -5.9541078750 -6.4364844842
98 1 -0.0652390625 -6.0260428438 -4.0378896160
99 1 0.5388975000 -6.5496229375 -5.6996700720
100 1 1.0701759375 -6.3922375625 -4.8453950080
101 1 1.1074246875 -5.8557440313 -3.9908090960
102 1 1.6536993750 -6.3537162813 -5.6199893680
103 1 -1.6970756250 -5.1697556250 -6.4220024644
104 1 -1.6858015625 -5.7766119375 -5.6999252264
105 1 -1.1552218750 -5.6231368750 -4.8730475280
106 1 -1.0662521875 -5.0837287500 -4.0056520880
107 1 -0.5537728125 -5.5925826875 -5.6199427408
108 1 0.0292534375 -5.4924894375 -4.8754695520
109 1 0.0172537500 -4.9137443750 -4.0904747360
110 1 0.5748159375 -5.3593184375 -5.6780790880
111 1 1.1437731250 -5.3235612500 -4.8572978960
112 1 1.6909078125 -4.6327259375 -6.4628136983
113 1 1.0775665625 -4.7441900000 -4.0385890240
114 1 1.6922246875 -5.2218931250 -5.7193635880
115 1 -2.1899362500 -4.7426984375 -4.8466902080
116 1 -1.6780615625 -4.5771081250 -5.6816136888
117 1 -1.0983140625 -4.5486071875 -4.8619735680
118 1 -1.1477640625 -3.9856296875 -4.0128922560
119 1 -0.5583818750 -4.4677268750 -5.7110535848
120 1 -0.0380684375 -4.3223331250 -4.8486589120
121 1 0.5520931250 -3.7189356250 -6.4667270415
122 1 0.0261628125 -3.7726318750 -4.0045641200
123 1 0.5435603125 -4.2726950000 -5.6350253448
124 1 1.1201500000 -4.2099687500 -4.8529201200
125 1 1.1299996875 -3.5926231250 -4.1151353440
126 1 1.6641806250 -4.0885206250 -5.6444479248
127 1 -2.2076871875 -2.9912412500 -4.0167260480
128 1 -1.6857881250 -3.5053062500 -5.6211058304
129 1 -1.1003296875 -3.4536121875 -4.8455633840
130 1 -1.1219640625 -2.8319531250 -4.1268180480
131 1 -0.5677881250 -3.2872828125 -5.6627711192
132 1 0.0051465625 -3.2339762500 -4.8579066400
133 1 -0.0628471875 -2.6515681250 -4.0509322800
134 1 0.5649259375 -3.1517253125 -5.6752128104
135 1 1.0952637500 -3.0068018750 -4.8514306400
136 1 1.1131356250 -2.4642359375 -4.0068954800
137 1 1.6880590625 -3.0119350000 -5.6406491032
138 1 -1.6177809375 -6.3155833438 -3.2160981680
139 1 -0.5893418750 -6.1675424063 -3.1841196800
140 1 0.5286312500 -5.9788570625 -3.2726984080
141 1 0.5258228125 -6.5285771250 -2.4333570000
142 1 1.7210212500 -5.7815139375 -3.2632693520
143 1 1.6509446875 -6.3064807813 -2.4108464240
144 1 -1.6539143750 -5.1930293750 -3.2930200960
145 1 -1.7240984375 -5.7258060938 -2.4374886880
146 1 -0.4936131250 -5.0194571875 -3.2066302560
147 1 -0.5693200000 -5.5915695000 -2.4024017200
148 1 0.5434931250 -4.8202731250 -3.1862567600
149 1 0.6095653125 -5.4378619688 -2.4423327360
150 1 1.6578112500 -4.6634575000 -3.2756126080
151 1 1.6616946875 -5.2221350000 -2.4359992080
152 1 -1.7303603125 -4.0520378125 -3.2189476080
153 1 -1.6310975000 -4.6493078125 -2.4559582400
154 1 -0.5641868750 -3.8682800000 -3.2856245040
155 1 -0.6131800000 -4.4243506250 -2.4532124160
156 1 0.6091621875 -3.6981612500 -3.2417819840
157 1 0.5299078125 -4.2503484375 -2.4039430080
158 1 1.6570721875 -3.5596206250 -3.2114872560
159 1 1.7275384375 -4.1415315625 -2.4144341280
160 1 -1.6234918750 -2.9591928125 -3.2190123680
161 1 -1.6438228125 -3.5049703125 -2.3872219760
162 1 -0.6082081250 -2.7428759375 -3.2065914000
163 1 -0.4831050000 -3.3235775000 -2.4399625200
164 1 0.5166987500 -2.5563903125 -3.2993924800
165 1 0.5393946875 -3.1011600000 -2.4683144480
166 1 1.7212496875 -2.4391750000 -3.2600184000
167 1 1.6510925000 -2.9846837500 -2.4281632480
168 1 2.1967625000 -5.1740421875 -4.8236486000
169 1 -1.6578246875 -2.4260734375 -5.7056007928
170 1 -1.1618062500 -2.2484296875 -4.8567409600
171 1 -1.7276325000 -2.3824687500 -2.4370224160
172 1 2.2014790625 -3.5088000000 -4.0548178800
173 1 1.6834903125 -5.8189548438 -6.4657788256
174 1 -0.5774496875 -5.0480521875 -6.4730104971
175 1 -0.5662696875 -3.8505559375 -6.4254605189
176 1 0.5499700000 -2.5726228125 -6.4519175693
177 1 1.6741915625 -2.4641284375 -6.4713210641
178 1 6.6633068750 -5.7235889063 -4.8243480080
179 1 6.6524090625 -4.0306184375 -4.0242382080
180 1 2.2609131250 -6.3287211875 -4.8930324640
181 1 2.2525953125 -5.7671170000 -4.0854234560
182 1 2.8236218750 -6.2385192813 -5.6767074712
183 1 3.3680556250 -6.3700280625 -4.8246459040
184 1 3.3543762500 -5.7580923750 -4.0777040640
185 1 3.9068859375 -6.4129729688 -5.6622128880
186 1 4.4731287500 -6.4493106563 -4.8349038880
187 1 5.0144046875 -6.0674652813 -6.4367549219
188 1 4.4542759375 -5.8883004063 -4.0290563520
189 1 5.0206665625 -6.6201429375 -5.6320010528
190 1 5.6262543750 -6.6427344656 -4.8871911120
191 1 5.5928756250 -6.1285494688 -3.9783881280
192 1 2.2439953125 -4.6084309375 -4.0310639120
193 1 2.7781090625 -5.1729268750 -5.6255548424
194 1 3.3584881250 -5.1941581250 -4.8557695600
195 1 3.3650187500 -4.6417290625 -4.0465286000
196 1 3.9183346875 -5.3124350000 -5.6320217760
197 1 4.5152150000 -5.3460153125 -4.8827097200
198 1 5.0488853125 -4.8771003125 -6.4598803294
199 1 4.4838250000 -4.8304050000 -3.9933994960
200 1 5.0626587500 -5.4587290625 -5.7192534960
201 1 5.5648046875 -5.5813529688 -4.8125487360
202 1 5.6474318750 -4.9891153125 -4.0571103840
203 1 6.1309131250 -5.5914620000 -5.6673341088
204 1 2.2609803125 -4.0648168750 -4.8621289920
205 1 2.8135571875 -4.0768031250 -5.6614448344
206 1 3.3729468750 -4.0626534375 -4.8415223600
207 1 3.9432478125 -3.5866568750 -6.4759078648
208 1 3.3559753125 -3.5284053125 -3.9903169200
209 1 3.9213581250 -4.1657056250 -5.7067185504
210 1 4.4366325000 -4.2716468750 -4.8273010640
211 1 5.0892650000 -3.7486996875 -6.4744566526
212 1 4.5248631250 -3.6936193750 -4.0620191920
213 1 4.9959281250 -4.3076190625 -5.6684544568
214 1 5.5589593750 -4.4353559375 -4.8679444400
215 1 6.1283734375 -4.0023728125 -6.4469644654
216 1 5.5811446875 -3.8632140625 -4.0808254960
217 1 6.1474143750 -4.5249706250 -5.5909742976
218 1 2.2582121875 -2.9401384375 -4.8704312240
219 1 2.2704268750 -2.4007975000 -4.0576932240
220 1 2.8134900000 -2.9254915625 -5.7027863232
221 1 3.3449162500 -2.9895884375 -4.8425973760
222 1 3.3770856250 -2.4045465625 -4.0633402960
223 1 3.9019678125 -3.0397371875 -5.6669831096
224 1 4.4624325000 -3.1385565625 -4.8651856640
225 1 4.9886181250 -2.6825415625 -6.4533670276
226 1 4.4375596875 -2.5696934375 -4.0564886880
227 1 5.0560878125 -3.2220303125 -5.5990887256
228 1 5.6680718750 -3.2964740625 -4.8829428560
229 1 5.5472015625 -2.7763218750 -4.0180989600
230 1 6.2170206250 -3.4011790625 -5.6902772816
231 1 2.7946103125 -5.7092497500 -3.2291408320
232 1 2.8435631250 -6.2846959063 -2.4041890960
233 1 3.8710481250 -5.8785864375 -3.2197765360
234 1 3.9325918750 -6.4454003438 -2.3993580000
235 1 5.0148884375 -6.0254704063 -3.2284802800
236 1 5.0561146875 -6.6012492750 -2.4685216800
237 1 6.2230271875 -6.1461472188 -3.2676730320
238 1 6.1381559375 -6.7013362094 -2.4684051120
239 1 2.8096468750 -4.6415946875 -3.2397873760
240 1 2.7615003125 -5.1729806250 -2.3826110640
241 1 3.9281843750 -4.7063768750 -3.2101791040
242 1 3.9373353125 -5.2986615625 -2.4682885440
243 1 5.0984696875 -4.8723703125 -3.2527652800
244 1 5.0213921875 -5.4373634375 -2.4675891360
245 1 6.1883987500 -5.0822371875 -3.2103345280
246 1 6.1036484375 -5.6275900625 -2.3767308560
247 1 2.7803531250 -3.4785925000 -3.2561328000
248 1 2.7917346875 -4.0507075000 -2.4716301600
249 1 3.9677309375 -3.5846278125 -3.2620130080
250 1 3.8727815625 -4.1208915625 -2.4375275440
251 1 5.0453512500 -3.7910143750 -3.1744056800
252 1 5.0044743750 -4.3516403125 -2.3683250080
253 1 6.1112406250 -3.9369993750 -3.1988849600
254 1 6.1983962500 -4.5075556250 -2.4188378080
255 1 2.8230306250 -2.3421159375 -3.2204888960
256 1 2.7964243750 -2.9399637500 -2.4411800080
257 1 3.8999387500 -2.4845131250 -3.1842880560
258 1 3.9066440625 -3.0520459375 -2.3881156640
259 1 5.0004431250 -2.6304578125 -3.2313038160
260 1 5.0673484375 -3.1934890625 -2.4348335280
261 1 6.1588900000 -2.8247775000 -3.2999105600
262 1 6.1859262500 -3.3509228125 -2.4288367520
263 1 6.6665856250 -2.3331934375 -4.8486718640
264 1 6.1256321875 -2.2678871875 -5.7025531872
265 1 6.1222862500 -2.3049881250 -2.4016246000
266 1 6.1542675000 -6.1635917813 -6.4660315321
267 1 3.8815293750 -4.7645209375 -6.4495430791
268 1 2.7681518750 -3.5208400000 -6.4561747622
269 1 3.9398078125 -2.4582965625 -6.4560449831
270 1 -6.1666420938 -1.8834806250 -6.4151622542
271 1 -5.0691356250 -2.0424059375 -6.4695825430
272 1 -5.6364843438 -1.9933725000 -4.0267638480
273 1 -4.4552165625 -2.0923800000 -4.0660084080
274 1 -2.8025518750 -1.9283753125 -6.4549540362
275 1 -3.3271115625 -2.0720356250 -4.0761109680
276 1 -6.6906297469 -1.2293834375 -4.9140794640
277 1 -6.1040327500 -1.2856596875 -5.6672421496
278 1 -5.5742794688 -1.4190134375 -4.8185843680
279 1 -5.5833000625 -0.8505534375 -4.0430833680
280 1 -5.0256384375 -1.4630346875 -5.7070540072
281 1 -4.5067493750 -1.5131834375 -4.8204106000
282 1 -3.8854396875 -0.9917278125 -6.4564644984
283 1 -4.4291881250 -0.9374134375 -4.0223342640
284 1 -3.9464862500 -1.5555518750 -5.6633423024
285 1 -3.3760375000 -1.5112350000 -4.8710788240
286 1 -3.3077615625 -0.9437559375 -4.0766031440
287 1 -2.7922856250 -1.3906603125 -5.6016065944
288 1 -6.6924287594 -0.1308006250 -4.8020705680
289 1 -6.6858722000 0.4553028125 -4.0422155840
290 1 -6.1567735938 -0.1733706250 -5.7135442544
291 1 -5.6377246250 -0.2804540625 -4.8163825280
292 1 -4.9978631250 0.1728868750 -6.4755930326
293 1 -5.5445234688 0.3003146875 -4.0554913840
294 1 -5.0866850000 -0.3637934375 -5.6345435304
295 1 -4.4689496875 -0.4245309375 -4.9091577040
296 1 -4.5030137500 0.1190831250 -4.0621098560
297 1 -3.8980037500 -0.4204056250 -5.6845499072
298 1 -3.3541612500 -0.3567521875 -4.8415094080
299 1 -2.8122671875 0.2531625000 -6.4663325495
300 1 -3.3940437500 0.1961337500 -4.0137859440
301 1 -2.7919362500 -0.3326856250 -5.6972350960
302 1 -6.6789958281 1.6006481250 -4.0539630480
303 1 -6.2193856250 0.9042631250 -5.6443313568
304 1 -5.6239404375 0.8544503125 -4.8956099120
305 1 -5.0667840625 1.2930906250 -6.4519122590
306 1 -5.6213671563 1.3682062500 -4.0226839680
307 1 -5.0481193750 0.7469637500 -5.6512516104
308 1 -4.4846715625 0.6921118750 -4.8603416160
309 1 -4.4567215625 1.2506550000 -4.0717461440
310 1 -3.9188318750 0.7361196875 -5.6491689288
311 1 -3.3373778125 0.7074440625 -4.8738246480
312 1 -2.8299509375 1.4282584375 -6.4678774381
313 1 -3.3562843750 1.3028596875 -4.0905265440
314 1 -2.7910359375 0.8221331250 -5.7123410136
315 1 -6.1669041250 -1.8491075000 -3.1801822720
316 1 -5.0232734375 -2.0269393750 -3.2896914320
317 1 -3.8989443750 -2.0881471875 -3.2428958560
318 1 -2.8192950000 -1.9454678125 -3.1945071840
319 1 -6.1645001563 -0.7111931250 -3.2785268080
320 1 -6.1376950313 -1.2567287500 -2.4443921040
321 1 -5.0303012500 -0.9407459375 -3.2509001920
322 1 -5.0443703125 -1.4945859375 -2.4109500400
323 1 -3.8666675000 -1.0051518750 -3.2397485200
324 1 -3.9525062500 -1.5379487500 -2.4084503040
325 1 -2.7623871875 -0.8450306250 -3.2453567360
326 1 -2.7812668750 -1.3792518750 -2.3935943600
327 1 -6.1281880000 0.3362062500 -3.2394247200
328 1 -6.1739252188 -0.1959859375 -2.3799559040
329 1 -5.0362943750 0.2059834375 -3.1720743200
330 1 -5.0169846875 -0.4007331250 -2.4459463440
331 1 -3.9483675000 0.1532412500 -3.2310059200
332 1 -3.8860443750 -0.4258343750 -2.4608800000
333 1 -2.7830406250 0.2222965625 -3.2967373200
334 1 -2.8326787500 -0.2801046875 -2.3929597120
335 1 -6.1549138438 1.5026753125 -3.1845989040
336 1 -6.1717160938 0.9158596875 -2.4531994640
337 1 -5.0081831250 1.3421778125 -3.2718565280
338 1 -5.0428250000 0.8036834375 -2.4280078240
339 1 -3.9160234375 1.2494456250 -3.2281176240
340 1 -3.8983665625 0.6980109375 -2.3952133600
341 1 -2.8540712500 1.3670237500 -3.2068115840
342 1 -2.7591756250 0.7763246875 -2.4637423920
343 1 -2.2585212500 -1.9159456250 -4.0206893600
344 1 -6.1145045938 2.0532231250 -5.6382594592
345 1 -5.5529541563 1.9256206250 -4.8388931040
346 1 -4.9949875000 1.8814112500 -5.6944322832
347 1 -4.4731421875 1.8499540625 -4.8116550480
348 1 -3.9256715625 1.8003696875 -5.6582418048
349 1 -3.3516081250 1.8706881250 -4.8679832960
350 1 -2.7731237500 1.9577228125 -5.6169560096
351 1 -6.1427327500 2.0965321875 -2.4419700800
352 1 -5.0417096875 1.8687800000 -2.3880120480
353 1 -3.9253490625 1.8145462500 -2.4191745600
354 1 -2.7423787500 1.9487600000 -2.4449490400
355 1 -2.2636678125 -0.2042231250 -4.8345153280
356 1 -2.2579031250 0.9158328125 -4.8519746240
357 1 -2.2670137500 1.4692831250 -3.9984248720
358 1 -6.7021306344 -1.7634837500 -4.0471243920
359 1 -3.9469296875 0.1592343750 -6.4460539398
360 1 -6.1452805000 1.4791865625 -6.4317136150
361 1 -0.5558421875 -2.2309340625 -5.6290920336
362 1 -1.6928696875 -1.8001278125 -6.3972579274
363 1 -1.1041728125 -1.7120718750 -3.9934901600
364 1 0.0218493750 -2.0875693750 -4.8039097520
365 1 -0.4944328125 -1.6511328125 -3.2843163520
366 1 0.5475646875 -2.0095243750 -5.6825915648
367 1 1.1304700000 -1.9408721875 -4.8640847440
368 1 1.6563465625 -1.2701796875 -6.4409154929
369 1 1.0708343750 -1.3560587500 -4.0302090800
370 1 1.6657662500 -1.8791671875 -5.7151619592
371 1 -2.1493953125 -1.3892628125 -4.8926698080
372 1 -2.2081575000 -0.8187065625 -4.1220646640
373 1 -1.6107934375 -1.2132853125 -5.6567911808
374 1 -0.9754953125 -1.1545365625 -4.8685013760
375 1 -1.1598309375 -0.6352712500 -4.0074524160
376 1 -0.4555178125 -1.1114425000 -5.6333389944
377 1 -0.0047165625 -1.3582625000 -4.3177046240
378 1 0.0052406250 -0.4572781250 -4.0682102480
379 1 0.4688746875 -0.9323071875 -5.5679560032
380 1 1.0418631250 -0.8282875000 -4.8865435120
381 1 1.1645609375 -0.2586853125 -4.0483159760
382 1 1.6466581250 -0.7411453125 -5.6307861552
383 1 -2.2046368750 0.3638203125 -4.0426430000
384 1 -1.7009590625 -0.1140440625 -5.6247026008
385 1 -1.0916759375 -0.1054440625 -4.8760394400
386 1 -1.0937318750 0.4697212500 -4.1016523120
387 1 -0.5344093750 0.0314168750 -5.6703182496
388 1 0.0311212500 -0.0080759375 -4.8629320160
389 1 0.5252584375 0.7737312500 -6.4397261107
390 1 -0.0377862500 0.6465721875 -4.0651147200
391 1 0.5747756250 0.1951931250 -5.7319607032
392 1 1.0908159375 0.3130400000 -4.8554975680
393 1 1.6697840625 0.3553412500 -5.6444634672
394 1 1.0978168750 0.8235440625 -4.0215830480
395 1 -1.7089409375 1.5392790625 -6.4668804320
396 1 -1.6869975000 0.9543715625 -5.7015960344
397 1 -1.1778909375 1.0756987500 -4.8294381440
398 1 -1.0729440625 1.6237471875 -4.0384724560
399 1 -0.5880921875 1.1058121875 -5.5983478712
400 1 0.0135046875 1.1733625000 -4.8876055760
401 1 0.0219031250 1.7600975000 -4.1107834720
402 1 0.5800565625 1.3554675000 -5.6316345112
403 1 1.1822312500 1.3883759375 -4.8734619920
404 1 1.6997228125 1.4984290625 -5.7347958960
405 1 -1.6790693750 -1.8272178125 -3.2550577840
406 1 -0.6041096875 -1.0877387500 -2.4590796720
407 1 -0.5694409375 -2.1815512500 -2.3921825920
408 1 0.4725431250 -1.4650503125 -3.2657172800
409 1 0.6048218750 -2.0169956250 -2.4344449680
410 1 1.6319709375 -1.3146309375 -3.2679320720
411 1 1.6471150000 -1.8826071875 -2.4576160960
412 1 -1.6389718750 -1.2680700000 -2.4576160960
413 1 -0.5707712500 -0.4955615625 -3.2471441120
414 1 -0.5131378125 0.0439540625 -2.4355847440
415 1 0.5600481250 -0.3263968750 -3.2353577920
416 1 1.6430971875 -0.1729540625 -3.1434244960
417 1 -1.6349271875 0.4139556250 -3.2412509520
418 1 -1.7205106250 -0.6680587500 -3.1942222400
419 1 -0.5758909375 0.6541240625 -3.2150361040
420 1 -1.6846593750 -0.1133990625 -2.3907190160
421 1 0.5789815625 1.3453087500 -2.4428896720
422 1 0.5166181250 0.8006734375 -3.2603033440
423 1 1.6779137500 0.9616546875 -3.2569358240
424 1 1.6933400000 0.4344343750 -2.4246662080
425 1 -1.6707381250 1.5115440625 -3.2909995840
426 1 -1.7111043750 0.9870112500 -2.4440035440
427 1 -0.5221409375 1.7713043750 -3.2106065200
428 1 -0.5988421875 1.1750556250 -2.3899030400
429 1 0.5400396875 1.9301893750 -3.1938336800
430 1 1.0718959375 1.9352015625 -4.0654255680
431 1 1.6657796875 1.5074993750 -2.3988917280
432 1 2.1752625000 -1.8096818750 -4.8236097440
433 1 2.2288243750 -0.7050253125 -4.8829169520
434 1 2.1931209375 -0.1551896875 -4.0493909920
435 1 1.6469403125 2.0461953125 -3.2725818400
436 1 2.2292409375 2.1354875000 -4.0495982240
437 1 -2.1750878125 1.9892337500 -4.8722704080
438 1 -1.6380850000 2.1102518750 -5.7101987528
439 1 -1.1135656250 2.2003234375 -4.8361472800
440 1 -0.5580190625 2.1936718750 -5.7024780656
441 1 1.6811387500 2.1057771875 -6.4583573037
442 1 -1.6364993750 2.0763625000 -2.4490548240
443 1 0.5437350000 -0.9128362500 -2.4435113680
444 1 0.5398246875 0.2453418750 -2.4371260320
445 1 1.6891475000 -0.7988996875 -2.4352868480
446 1 2.2253843750 -1.2424178125 -4.0367109840
447 1 2.2178325000 1.5339175000 -4.8123933120
448 1 -1.6650540625 -0.6627375000 -6.4552545226
449 1 -0.5970818750 -0.5424181250 -6.4551449486
450 1 1.6583756250 0.8988075000 -6.4745229021
451 1 6.6644356250 -0.7114618750 -4.0296003360
452 1 2.2477981250 0.9573009375 -4.0331103280
453 1 6.6687893750 1.0192746875 -4.8298396560
454 1 2.2477712500 0.4179196875 -4.8641624560
455 1 2.7903237500 -1.2407515625 -6.4487296935
456 1 2.7502665625 -1.8163200000 -5.6402579528
457 1 3.3279850000 -1.8565921875 -4.8926050480
458 1 3.8563340625 -1.3941137500 -6.4545373703
459 1 3.3257140625 -1.3095918750 -4.0606203760
460 1 3.9361125000 -1.9230809375 -5.6023163640
461 1 4.5332346875 -2.0171568750 -4.8694468720
462 1 4.4237996875 -1.4816725000 -4.0229818640
463 1 5.0888887500 -2.0931190625 -5.6923431256
464 1 5.6049962500 -2.1938331250 -4.7854272480
465 1 5.6271278125 -1.5939831250 -4.0472021040
466 1 2.7503471875 -0.1228590625 -3.2441910560
467 1 2.8157609375 -0.6885509375 -5.6479307176
468 1 3.3810900000 -0.7318868750 -4.8441127600
469 1 3.3212796875 -0.1823871875 -4.0154308480
470 1 3.9391359375 -0.8026218750 -5.6914054008
471 1 4.4581190625 -0.9019384375 -4.7948951600
472 1 4.5239628125 -0.3097209375 -4.0617860560
473 1 4.9930659375 -0.9886909375 -5.6821602632
474 1 5.5497143750 -1.0442684375 -4.8549665360
475 1 6.1265996875 -0.6218740625 -6.4293182721
476 1 5.6087184375 -0.4730537500 -4.0539241920
477 1 6.1276075000 -1.1695731250 -5.6059196104
478 1 2.8016784375 0.4510296875 -5.6792901000
479 1 3.3476843750 0.3704046875 -4.8114996240
480 1 3.9511356250 0.8925590625 -6.4663449575
481 1 3.3854706250 0.9778200000 -4.0736759920
482 1 3.8700134375 0.3108496875 -5.6763512912
483 1 4.4485112500 0.2395234375 -4.8718300400
484 1 4.9804750000 0.6705984375 -6.4247133180
485 1 4.4729271875 0.8023128125 -4.0498054560
486 1 5.0283528125 0.1134662500 -5.6083571768
487 1 5.6485740625 0.0667843750 -4.9091836080
488 1 5.5535171875 0.5773825000 -4.0074394640
489 1 6.2244381250 -0.0297640625 -5.6757645656
490 1 2.8062875000 2.1176021875 -6.4633587314
491 1 2.7639056250 1.5322109375 -5.6622621056
492 1 3.3363162500 1.5335546875 -4.8831500880
493 1 3.8664390625 1.9572390625 -6.4575652889
494 1 3.3290868750 2.0653706250 -4.0391330080
495 1 3.9288293750 1.4197525000 -5.6114837896
496 1 4.5268384375 1.3433871875 -4.8888101120
497 1 4.4451518750 1.8668046875 -4.0145889680
498 1 5.0978650000 1.2690643750 -5.6883681568
499 1 5.6116075000 1.1466756250 -4.7965141600
500 1 5.6365743750 1.7445906250 -4.0554136720
501 1 6.1380484375 1.1045893750 -5.7131997312
502 1 2.7742121875 -1.2642134375 -3.2240377440
503 1 2.7730431250 -1.8090906250 -2.3811733920
504 1 3.8829940625 -1.3183128125 -3.2129249280
505 1 3.9556237500 -1.8892587500 -2.4497153760
506 1 5.0412796875 -1.5314718750 -3.2954162160
507 1 5.0508337500 -2.0724925000 -2.4224255120
508 1 6.1599515625 -1.7499387500 -3.2113447840
509 1 2.8215659375 0.4261703125 -2.4237984240
510 1 2.7968140625 -0.6839284375 -2.4501427920
511 1 3.9339625000 -0.2426946875 -3.2979677600
512 1 3.8681725000 -0.7452437500 -2.4002646400
513 1 5.0274793750 -0.4696406250 -3.1936264480
514 1 4.9917087500 -1.0260606250 -2.3868463680
515 1 6.1358312500 -0.5664309375 -3.1786798400
516 1 6.1552618750 -1.1624512500 -2.4600899280
517 1 2.7636100000 2.0825975000 -3.2086896240
518 1 2.8206925000 0.9809509375 -3.2563400320
519 1 3.9105006250 0.8286771875 -3.2105158560
520 1 3.8924406250 0.2848884375 -2.3868334160
521 1 5.0231390625 0.7248859375 -3.1949864080
522 1 5.0390490625 0.1293090625 -2.4710214160
523 1 6.1834403125 0.5695887500 -3.2899763760
524 1 6.1659850000 0.0309465625 -2.4445734320
525 1 3.8951818750 2.0129912500 -3.2181316320
526 1 3.9486765625 1.4359178125 -2.4780673040
527 1 5.0621346875 1.8489731250 -3.2865959040
528 1 5.0486703125 1.3120509375 -2.4389781680
529 1 6.1780921875 1.6330593750 -3.2301769920
530 1 6.1299053125 1.0829550000 -2.3884265120
531 1 6.7186425000 2.1269546875 -4.9217859040
532 1 6.0994962500 2.2034946875 -5.6197147856
533 1 6.1666568750 2.2051340625 -2.4527072880
534 1 2.7900012500 1.5180209375 -2.4119343920
535 1 2.7566225000 -0.1267828125 -6.4579661533
536 1 5.0902459375 -0.4129478125 -6.4709009530
537 1 -6.1684467500 6.5655356250 -5.6755275440
538 1 -5.6332136563 6.4368312500 -4.8274176320
539 1 -5.0605893750 6.3263750000 -5.5994759904
540 1 -4.4468315625 6.3244131250 -4.8692655440
541 1 -3.9140750000 6.3056812500 -5.6907474392
542 1 -3.3421078125 6.3402021875 -4.8711694880
543 1 -2.7993806250 6.3956318750 -5.7279144984
544 1 -6.2161633125 6.5345353125 -2.3852791760
545 1 -5.0249531250 6.3171300000 -2.3839062640
546 1 -3.9017662500 6.2925931250 -2.4522151120
547 1 -2.8565706250 6.4372478125 -2.4367892800
548 1 -2.2674571875 6.5013715625 -4.8790313520
549 1 -6.1961051563 2.5983690625 -6.4581189869
550 1 -5.6023047188 2.5174215625 -4.0744401600
551 1 -3.9041043750 2.3652284375 -6.4666881726
552 1 -4.4613978125 2.4454368750 -4.0413737040
553 1 -3.3092262500 2.4184006250 -4.0389128240
554 1 -6.1462668125 3.1826046875 -5.6832974488
555 1 -5.6042370313 3.0803453125 -4.8346837040
556 1 -5.0229375000 3.5350837500 -6.4627995806
557 1 -5.5856596875 3.6748337500 -4.0660084080
558 1 -5.0479984375 2.9821037500 -5.6330177848
559 1 -4.4242162500 2.9593271875 -4.9111652640
560 1 -4.5209259375 3.4989368750 -4.0398324160
561 1 -3.8648937500 2.9320356250 -5.7001505912
562 1 -3.3346768750 2.9960653125 -4.8250603680
563 1 -3.3857931250 3.5469893750 -4.0081777280
564 1 -2.7687968750 3.0212740625 -5.6704218656
565 1 -6.1939161875 4.2595934375 -5.6603983128
566 1 -5.5979590313 4.2168218750 -4.8928511360
567 1 -5.6199965313 4.7379012500 -3.9882186960
568 1 -5.0369259375 4.1153821875 -5.6920478200
569 1 -4.4904900000 4.0517018750 -4.8718688960
570 1 -4.4452862500 4.5961759375 -4.0531211680
571 1 -3.9083103125 4.0836562500 -5.6629692848
572 1 -3.3577490625 4.0812643750 -4.8411467520
573 1 -3.3547256250 4.6917031250 -4.1079599360
574 1 -2.8236084375 4.1269518750 -5.7065113184
575 1 -6.1301525625 5.4214265625 -5.6848607552
576 1 -5.5948831875 5.2742859375 -4.8274564880
577 1 -5.5872184375 5.8647162500 -4.0611514080
578 1 -5.0428115625 5.2608887500 -5.6909080440
579 1 -4.5109956250 5.1764743750 -4.8256561600
580 1 -4.4530262500 5.7661253125 -4.0710208320
581 1 -3.9580962500 5.1559284375 -5.6634446232
582 1 -3.3772468750 5.2603378125 -4.9066838720
583 1 -3.3342334375 5.7786087500 -4.0344184800
584 1 -2.7857684375 5.2477200000 -5.6384356064
585 1 -6.1551463125 2.6441371875 -3.2669865760
586 1 -5.0496512500 2.4053393750 -3.2595391760
587 1 -3.8951550000 2.3440509375 -3.2606660000
588 1 -2.7316690625 2.5165615625 -3.2445148560
589 1 -6.1662604688 3.6790934375 -3.2485429280
590 1 -6.1620505000 3.1598281250 -2.3618231040
591 1 -5.0667034375 3.5450140625 -3.1876555760
592 1 -4.9949203125 2.9449893750 -2.4538470640
593 1 -3.9396196875 3.5234200000 -3.2382460880
594 1 -3.8756034375 2.9228981250 -2.4927160160
595 1 -2.7513281250 3.5987640625 -3.3144686080
596 1 -2.8335521875 3.0729009375 -2.4363877680
597 1 -6.1844024375 4.8276771875 -3.2104770000
598 1 -6.1451595625 4.2494750000 -2.4515027520
599 1 -4.9931868750 4.7094809375 -3.2749002480
600 1 -5.0396134375 4.1499703125 -2.4708530400
601 1 -3.8762215625 4.6329140625 -3.2205148000
602 1 -3.9247309375 4.0640106250 -2.4130094080
603 1 -2.8277740625 4.7000478125 -3.2183777200
604 1 -2.7772625000 4.1352428125 -2.4395998640
605 1 -6.1233048125 6.0116687500 -3.2482320800
606 1 -6.1509054375 5.4234421875 -2.4845562560
607 1 -5.0152781250 5.8007671875 -3.2578165600
608 1 -5.0762843750 5.2396037500 -2.4144341280
609 1 -3.9096675000 5.7156003125 -3.2416524640
610 1 -3.9605284375 5.1883800000 -2.3949154640
611 1 -2.7749109375 5.8326140625 -3.1987295360
612 1 -2.7679637500 5.2834906250 -2.4236689040
613 1 -2.2431353125 3.1430984375 -4.8153593200
614 1 -2.2720796875 4.8362100000 -4.0395992800
615 1 -2.2533209375 5.9251178125 -4.0885319360
616 1 -2.2775487500 4.2767262500 -4.8617145280
617 1 -6.7024480281 3.2301331250 -4.8284019840
618 1 -6.7135430091 3.8176071875 -4.0781314800
619 1 -6.6911059719 5.5107456250 -4.9025521840
620 1 -3.9400228125 3.5079265625 -6.4645127935
621 1 -6.1661287813 4.8318025000 -6.4389826659
622 1 -5.0580765625 4.6807918750 -6.4640967882
623 1 -6.1702406563 5.9907331250 -6.4633136714
624 1 -3.9153650000 5.7220637500 -6.4571896809
625 1 -2.7956181250 5.7915625000 -6.4688454836
626 1 -0.0444109375 2.3865671875 -4.8161364400
627 1 -2.1717553125 2.5542537500 -4.0884542240
628 1 -1.6768521875 6.5645412500 -5.6382400312
629 1 -1.0948740625 6.6338384375 -4.8632169600
630 1 -1.6798487500 6.5759228125 -2.4020649680
631 1 -0.4976846875 6.6540618750 -2.4240704160
632 1 1.0618178125 2.5078540625 -4.8414705520
633 1 -1.0353862500 2.7567971875 -3.8975676480
634 1 0.5483171875 2.9962937500 -3.3143908960