ITEM: TIMESTEP
100000
ITEM: NUMBER OF ATOMS
2304
ITEM: BOX BOUNDS pp pp pp
-6.7187500000 6.7187500000
-6.7187500000 6.7187500000
-6.4760000000 6.4760000000
ITEM: ATOMS id type x y z
1 1 -6.2082499688 -6.2812559063 -5.6933145256
2 1 -5.6606248125 -6.3248740313 -4.8805726400
3 1 -5.6609809063 -5.7560082188 -4.0887262160
4 1 -5.0585603125 -6.2836249375 -5.6172098688
5 1 -4.4782081250 -6.3425550938 -4.8683459520
6 1 -3.9589562500 -5.3229968750 -5.7303857400
7 1 -4.5628509375 -5.8029655625 -4.0682491040
8 1 -3.9072621875 -6.4651077813 -5.6538730952
9 1 -3.3347440625 -6.4723707500 -4.8253453120
10 1 -2.7932262500 -6.0124320000 -6.4356361282
11 1 -3.3698428125 -5.9448991563 -3.9860557120
12 1 -2.8364412500 -6.6257448969 -5.7389962296
13 1 -6.1811841563 -5.1837709375 -5.5802966688
14 1 -5.5875073438 -5.1694868750 -4.8407452400
15 1 -5.0970318750 -4.6434893750 -6.4644577734
16 1 -5.6597916875 -4.5887046875 -4.1057321920
17 1 -5.0450287500 -5.2093156250 -5.6728762696
18 1 -4.4704278125 -5.1926262500 -4.8224570160
19 1 -4.4794712500 -4.6530300000 -3.9941248080
20 1 -3.3222203125 -4.8644421875 -4.0593510800
21 1 -2.8233531250 -5.4442743438 -5.6589671168
22 1 -6.1035785625 -3.5579946875 -6.4262724798
23 1 -6.7166952450 -3.6204253125 -4.0086569520
24 1 -6.2146408438 -4.1085962500 -5.6337923144
25 1 -5.0563968750 -4.0776765625 -5.6980873376
26 1 -5.0269284375 -3.4677081250 -6.4378098623
27 1 -5.5540667813 -3.4774368750 -4.0243418240
28 1 -4.5363790625 -4.1375809375 -4.8782671840
29 1 -3.9180659375 -4.1609621875 -5.6475201392
30 1 -4.4616800000 -3.5570271875 -4.0907596800
31 1 -3.3703803125 -4.3023918750 -4.8679962480
32 1 -3.4264818750 -5.4197119375 -4.8725294480
33 1 -3.9180928125 -3.6207075000 -3.1899480800
34 1 -2.7867896875 -4.3856237500 -5.6431604960
35 1 -6.2193036563 -2.9609800000 -5.7121622760
36 1 -5.6700713750 -2.9336750000 -4.8761171520
37 1 -5.6286959688 -4.0000212500 -4.8778138640
38 1 -5.5725970938 -2.3936890625 -4.0482123600
39 1 -5.0616778125 -2.9113956250 -5.6173355032
40 1 -4.4793234375 -2.9932434375 -4.8705996000
41 1 -4.4934462500 -2.4188306250 -4.0872496880
42 1 -3.9084715625 -3.1004612500 -5.6426773864
43 1 -3.3213737500 -3.1364334375 -4.8356292000
44 1 -2.8038150000 -2.6490553125 -6.4220501278
45 1 -3.3549137500 -2.5886537500 -4.0107033680
46 1 -2.8165268750 -3.2626518750 -5.7238320280
47 1 -6.1974811563 -5.7255575000 -3.2264079600
48 1 -6.1660508438 -6.3034560000 -2.4374886880
49 1 -5.1175912500 -5.6853027813 -3.2331041440
50 1 -5.0675096875 -6.2636742813 -2.4583543600
51 1 -3.9947671875 -5.8978155000 -3.2986542160
52 1 -3.8715856250 -6.4042493438 -2.3862376240
53 1 -2.7795334375 -6.0648490000 -3.2697064960
54 1 -6.1825131250 -4.6455721875 -3.1977840400
55 1 -6.1605629688 -5.1897640625 -2.3688430880
56 1 -5.1138690625 -4.6235481250 -3.2992241040
57 1 -4.9686096875 -5.1430015625 -2.4089295280
58 1 -3.8955178125 -4.7589443750 -3.2663001200
59 1 -3.9227153125 -5.3410165625 -2.4870948480
60 1 -2.7890068750 -4.3355556250 -2.3891259200
61 1 -6.1510223438 -3.5307300000 -3.2685796720
62 1 -6.1617159063 -4.0524140625 -2.4219203840
63 1 -4.9892900000 -3.4996221875 -3.2255531280
64 1 -5.0727771875 -4.0879562500 -2.4425658720
65 1 -3.9836812500 -4.2154781250 -2.4454412160
66 1 -3.4021331250 -3.7331121875 -4.0956555360
67 1 -6.1880493750 -2.9598781250 -2.4659442320
68 1 -5.0265790625 -2.3628096875 -3.2062546480
69 1 -5.1068009375 -2.9422615625 -2.4397293840
70 1 -3.9588353125 -2.5532459375 -3.2602644880
71 1 -3.8900487500 -3.0572865625 -2.3717184320
72 1 -2.7806084375 -2.6985725000 -3.2523767200
73 1 -2.8555090625 -3.8140462500 -3.2641112320
74 1 -2.7759590625 -4.8970281250 -3.1850651760
75 1 -2.8658425000 -5.5041773750 -2.4720575760
76 1 -2.7734462500 -3.2609184375 -2.4419312240
77 1 -3.9657018750 -5.9170633750 -6.4722530512
78 1 -2.2776428125 -5.0310000000 -4.1045535600
79 1 -2.3111962500 -6.6898810094 -4.8477911280
80 1 -2.2640709375 -5.5979052813 -4.8833184640
81 1 -2.2538853125 -3.8769875000 -4.0101464320
82 1 -2.2678065625 -3.3523740625 -4.8840696800
83 1 -6.7029876781 -4.7511506250 -4.1061984640
84 1 -6.1563355313 -2.3806681250 -3.2693826960
85 1 -2.7799634375 -6.6313420188 -2.4603360160
86 1 -3.9161443750 -4.7277962500 -6.4427300681
87 1 -3.9399825000 -2.5482203125 -6.4629222361
88 1 -2.1914681250 -6.1336503438 -4.0265566160
89 1 -2.2146478125 -2.7915196875 -4.0502199200
90 1 -1.7241521875 -5.0913075000 -3.2551484480
91 1 -1.6652690625 -5.6535244375 -5.6395365264
92 1 -1.1327678125 -6.3353552813 -4.0997742720
93 1 0.5476856250 -6.5734073125 -6.4102663982
94 1 -0.0174284375 -6.4554542813 -4.0570067680
95 1 1.1225418750 -6.5889249375 -4.0274762080
96 1 -1.1052209375 -5.7204633438 -4.8156054080
97 1 -0.5950796875 -5.8176446875 -5.6855938384
98 1 -0.5862512500 -4.6979246875 -5.6617686344
99 1 -1.1417440625 -5.1547459375 -4.0372290640
100 1 -0.0194843750 -5.8850512188 -4.8512363600
101 1 0.0155875000 -5.3160631250 -4.0534708720
102 1 0.5258765625 -5.9596172500 -5.6819957728
103 1 1.0835328125 -6.0621386563 -4.8874372000
104 1 1.1123562500 -5.4989716875 -4.0917569840
105 1 1.6852640625 -6.0122102813 -5.6433379384
106 1 -2.2061687500 -4.4208837500 -4.8377274240
107 1 -1.6527050000 -3.9653525000 -6.4160128120
108 1 -1.6991450000 -4.5782906250 -5.7218555528
109 1 -1.1439612500 -4.6037681250 -4.8616886240
110 1 -1.0848496875 -4.0510300000 -4.0434589760
111 1 0.0047837500 -4.7752171875 -4.9178484960
112 1 1.0866503125 -4.3334056250 -4.0286030320
113 1 -0.0240800000 -4.2438446875 -4.0840505440
114 1 0.6174665625 -4.9018521875 -5.6300802712
115 1 1.1719650000 -4.8973237500 -4.8156313120
116 1 1.1369200000 -3.7844568750 -4.8555623280
117 1 1.6693137500 -4.8780006250 -5.7207533376
118 1 -1.6742050000 -3.3809690625 -5.6581835208
119 1 -1.1133237500 -3.5152903125 -4.8865176080
120 1 -1.1626796875 -2.9503509375 -4.0996706560
121 1 -0.5063921875 -3.5819000000 -5.6228932064
122 1 0.0695256250 -3.6383912500 -4.8356551040
123 1 0.5830800000 -3.7979481250 -5.7126907176
124 1 1.1533406250 -3.2355753125 -3.9900190240
125 1 1.7316234375 -3.2345675000 -3.1972400560
126 1 1.6848878125 -3.7744593750 -5.6687510576
127 1 -1.6311378125 -6.1810282813 -3.1909324320
128 1 -0.5758506250 -6.3537942188 -3.2406940160
129 1 0.5432512500 -6.5412392813 -3.2585807280
130 1 1.6819987500 -6.6153986938 -3.2005428160
131 1 -1.6995615625 -5.6164611250 -2.3943196720
132 1 -0.5683390625 -5.2814212500 -3.2732812480
133 1 -0.5318428125 -5.8078877188 -2.3945916640
134 1 0.5729346875 -5.4163834688 -3.2329228160
135 1 0.5502118750 -5.9906014375 -2.4402215600
136 1 1.6522750000 -5.4546978125 -3.2339719280
137 1 1.6900881250 -6.0316449375 -2.4556603440
138 1 -1.6729015625 -3.9978175000 -3.2789412720
139 1 -1.6553790625 -4.5304665625 -2.4153278160
140 1 -0.5443396875 -4.1286987500 -3.1970328240
141 1 -0.6038006250 -4.7307525000 -2.4616182640
142 1 0.5265753125 -4.2937784375 -3.2200614800
143 1 0.5417462500 -4.8598062500 -2.4294973040
144 1 1.6769328125 -4.3724012500 -3.2756773680
145 1 1.6968471875 -4.8933193750 -2.4092921840
146 1 -1.7193146875 -3.4515159375 -2.4596236560
147 1 -0.0374503125 -3.1095853125 -4.0096542560
148 1 -0.5566887500 -3.5651434375 -2.4039559600
149 1 0.5435065625 -3.1625962500 -3.2733071520
150 1 0.5764553125 -3.7137756250 -2.4432652800
151 1 2.1986437500 -6.4873159375 -4.0630812560
152 1 2.2340650000 -3.1623409375 -4.0821077440
153 1 -2.2199556250 -2.2398162500 -4.8654576560
154 1 -1.6267437500 -2.3072590625 -5.6408628112
155 1 -0.5577771875 -2.5119390625 -5.7259522704
156 1 -1.0653250000 -2.3416456250 -4.8237651680
157 1 -0.0114756250 -2.5395396875 -4.8270290720
158 1 0.5194400000 -2.6094953125 -5.6971055760
159 1 1.0754703125 -2.7098600000 -4.8624398400
160 1 1.6424925000 -2.6676125000 -5.6053639696
161 1 -1.6644628125 -2.8389406250 -3.1863085680
162 1 -0.6188506250 -3.0172293750 -3.2385957920
163 1 0.5412087500 -2.6328900000 -2.4298340560
164 1 1.6427075000 -3.8240975000 -2.4494174800
165 1 -1.6739631250 -2.2793090625 -2.3812640560
166 1 -0.5163896875 -2.4662918750 -2.4135533920
167 1 1.6519256250 -2.6518100000 -2.4582896000
168 1 1.6109143750 -6.5724895313 -6.4652966485
169 1 2.2382709375 -5.4283428438 -4.0380838960
170 1 2.2348309375 -3.7715434375 -4.8283113200
171 1 -0.5784037500 -4.1022537500 -6.4632220749
172 1 0.6572953125 -3.1858162500 -6.4464589489
173 1 1.7885850000 -3.1901834375 -6.4657646431
174 1 1.6215568750 -5.4975983750 -6.4725674221
175 1 6.7003406250 -5.7548042188 -4.0939070160
176 1 2.2410928125 -4.8667131250 -4.8782801360
177 1 2.2549334375 -2.6046846875 -4.8712990080
178 1 6.6974112500 -6.3793644375 -4.8059173120
179 1 6.5478921875 -5.2767987500 -5.0792174640
180 1 6.6519790625 -4.1350009375 -4.8361343280
181 1 6.6965781250 -3.0435534375 -4.8133647120
182 1 6.7046271875 -2.4650959375 -4.0350531280
183 1 3.3652606250 -6.3608771250 -4.0544034160
184 1 4.5321462500 -6.2043786250 -4.0357913920
185 1 5.0444375000 -6.6959476375 -5.6146596200
186 1 5.6145771875 -6.5303602813 -4.8345671360
187 1 5.0694312500 -6.1297843750 -6.4381361232
188 1 5.5661215625 -5.9245709063 -4.0793878240
189 1 2.2571103125 -5.9478164375 -4.9133671040
190 1 3.3758225000 -5.7677485625 -4.8226772000
191 1 3.9833587500 -4.5652293750 -5.6517994800
192 1 3.3290196875 -5.1918065625 -4.0609441760
193 1 3.9185362500 -5.6938651563 -5.7138175416
194 1 4.4470734375 -5.6291017813 -4.8294122400
195 1 4.5050696875 -5.0760693750 -4.0583667280
196 1 5.0049984375 -5.5417580313 -5.6385353368
197 1 5.6531696875 -5.4145559688 -5.0533523200
198 1 6.1163603125 -5.7929237188 -6.3266142224
199 1 5.6398934375 -4.9275850000 -4.0206893600
200 1 6.1638887500 -6.4248140938 -5.7032279864
201 1 2.2601068750 -4.3182884375 -4.0416586480
202 1 2.7653703125 -4.7277962500 -5.7351261720
203 1 3.3452925000 -4.6762903125 -4.9733219120
204 1 3.3786578125 -4.1482368750 -4.0922880160
205 1 3.9196246875 -3.4608818750 -5.6477804744
206 1 4.5184265625 -4.5084425000 -4.8244775280
207 1 4.4241221875 -3.9267196875 -4.0568254400
208 1 5.0400165625 -4.4107787500 -5.7256997064
209 1 5.5634475000 -4.3478106250 -4.8090516960
210 1 5.5632190625 -3.7716643750 -4.0472539120
211 1 6.1704059375 -4.8654096875 -6.3351677232
212 1 2.8137721875 -2.6970809375 -5.7276191928
213 1 2.7702078125 -3.6220109375 -5.7308921632
214 1 3.3311293750 -3.5736225000 -4.8626859280
215 1 3.8925884375 -2.8871946875 -6.4636027601
216 1 3.3659190625 -2.9935928125 -4.0936997840
217 1 4.4840803125 -3.3853496875 -4.8942110960
218 1 4.4911618750 -2.8452965625 -4.0500644960
219 1 5.0608178125 -3.3297184375 -5.6740043888
220 1 5.6104787500 -3.2037284375 -4.8731122880
221 1 6.1690756250 -3.1502337500 -5.6963763784
222 1 5.5868153125 -2.6498346875 -4.0551028240
223 1 6.0882490625 -4.2488300000 -5.7120716120
224 1 2.7962228125 -6.4545848750 -3.2771668480
225 1 3.9300925000 -6.2235055625 -3.2708462720
226 1 5.0582109375 -6.1050365313 -3.1826820080
227 1 5.0202231250 -6.6864451750 -2.4385896080
228 1 6.1516875000 -5.9696429688 -3.2614560720
229 1 6.1933975000 -6.4922165938 -2.3750600480
230 1 2.7879184375 -5.3505437500 -3.2105676640
231 1 2.8154653125 -5.9133694063 -2.4217390560
232 1 3.9111725000 -5.1655496875 -3.2861425840
233 1 3.9060662500 -5.6840907188 -2.3925711520
234 1 5.0447331250 -4.9003337500 -3.2546433200
235 1 4.9981050000 -5.4906310313 -2.4967052320
236 1 6.1918656250 -4.7657840625 -3.2069411040
237 1 6.1174218750 -5.3948700313 -2.4895427760
238 1 2.8047153125 -4.1816828125 -3.2464317520
239 1 2.8000928125 -4.7640371875 -2.4582118880
240 1 3.8881406250 -4.0441500000 -3.2058919920
241 1 3.9119518750 -4.6205784375 -2.4337973680
242 1 4.9904456250 -3.8428562500 -3.2458489120
243 1 5.0210293750 -4.3839709375 -2.3953558320
244 1 6.1178518750 -3.6629415625 -3.2651862480
245 1 6.1258740625 -4.2078993750 -2.4407396400
246 1 2.8244953125 -3.1290159375 -3.2576870400
247 1 2.7891546875 -3.6695259375 -2.3721847040
248 1 3.9012153125 -2.9212990625 -3.2512239920
249 1 3.9385178125 -3.4710406250 -2.4223737040
250 1 5.0258131250 -2.7094165625 -3.2198153920
251 1 5.0613418750 -3.2723403125 -2.4293289280
252 1 6.1344875000 -2.5517543750 -3.2336092720
253 1 6.1865443750 -3.1096928125 -2.4247698240
254 1 3.3515812500 -2.4019665625 -4.8295417600
255 1 3.9340968750 -2.3484315625 -5.6412345336
256 1 4.4828843750 -2.2871296875 -4.8296324240
257 1 2.7943146875 -2.5719106250 -2.4352868480
258 1 3.9418234375 -2.3951000000 -2.3815230960
259 1 2.8499593750 -5.9011278438 -5.6785518360
260 1 5.0183553125 -2.7618362500 -6.4604985283
261 1 4.4321309375 -6.7174974436 -4.9329375760
262 1 2.7516237500 -5.3310325000 -6.4416259101
263 1 3.8864743750 -5.1176181250 -6.4747761824
264 1 6.0673940625 -2.5552346875 -6.4640716872
265 1 -6.1294578438 -1.8445925000 -5.6633112176
266 1 -5.5908102813 -1.8013909375 -4.8270031680
267 1 -5.6595242813 -1.2367337500 -4.0653737600
268 1 -5.0454587500 -1.8283868750 -5.6765287336
269 1 -4.4759640625 -1.8332512500 -4.8452136800
270 1 -4.4789875000 -1.2972562500 -3.9823514400
271 1 -3.9412456250 -1.9656106250 -5.7105018296
272 1 -3.3968253125 -2.0698318750 -4.8991587600
273 1 -3.3353084375 -1.5270509375 -4.0536133440
274 1 -2.7695896875 -2.0878918750 -5.6302344000
275 1 -6.1749088438 -0.1587909375 -6.4238232566
276 1 -6.6983553688 -0.2774440625 -4.0531082160
277 1 -6.1336395938 -0.7491271875 -5.6594761304
278 1 -5.5657426250 -0.6646993750 -4.8638645600
279 1 -5.5793695938 -0.1285968750 -4.0112214480
280 1 -5.0098628125 -0.6791984375 -5.6974488040
281 1 -4.4846446875 -0.7882168750 -4.8641236000
282 1 -4.4878831250 -0.2096115625 -4.0644282640
283 1 -3.8864743750 -0.7908237500 -5.6567549152
284 1 -3.3555990625 -0.9588059375 -4.8421440560
285 1 -3.3901334375 -0.3736700000 -4.0897882800
286 1 -2.7849487500 -1.0217068750 -5.6493295336
287 1 -6.1911104375 0.4280112500 -5.6784262016
288 1 -5.6335280938 0.4051540625 -4.8879552800
289 1 -5.5666657813 0.9398725000 -4.0373844880
290 1 -5.0184493750 0.4633921875 -5.6211369152
291 1 -4.4564125000 0.3601115625 -4.8489956640
292 1 -4.4782350000 0.9213690625 -4.0710078800
293 1 -3.9024650000 0.2512409375 -5.6634588704
294 1 -3.3393934375 0.2295931250 -4.8070829920
295 1 -2.7826240625 0.6947053125 -6.4106434309
296 1 -3.3153671875 0.7908237500 -4.0140449840
297 1 -2.8366831250 0.0836350000 -5.7145052928
298 1 -6.7060708588 1.4917909375 -4.8296194720
299 1 -6.1181018125 1.5346834375 -5.6498877648
300 1 -5.5851033750 1.5319556250 -4.7933797760
301 1 -5.6297951563 2.1440068750 -4.0815767120
302 1 -5.0583990625 1.5472609375 -5.6685813864
303 1 -4.4875203125 1.5233690625 -4.8330776560
304 1 -3.9038490625 1.9676800000 -6.4128224754
305 1 -4.4416043750 2.0525915625 -3.9895916080
306 1 -3.9561612500 1.3794131250 -5.6918341120
307 1 -3.3925118750 1.3020131250 -4.9144550720
308 1 -2.7621184375 1.2605315625 -5.6134162280
309 1 -6.1921961875 -1.2784303125 -3.1953749680
310 1 -6.1581213750 -1.8589303125 -2.4247827760
311 1 -5.1041940625 -1.2753800000 -3.2777885440
312 1 -5.0042459375 -1.7925893750 -2.4058210480
313 1 -3.8965525000 -1.3980375000 -3.2507059120
314 1 -3.9165609375 -1.9692925000 -2.4660996560
315 1 -2.7777328125 -1.5402331250 -3.1968514960
316 1 -2.8528887500 -2.1392500000 -2.4524741520
317 1 -6.1728515625 -0.1420881250 -3.2338683120
318 1 -6.1484356250 -0.6839015625 -2.4273084160
319 1 -5.0115693750 -0.1396156250 -3.2070058640
320 1 -5.0251278125 -0.7216475000 -2.4469177440
321 1 -3.9143975000 -0.2505825000 -3.2162924480
322 1 -3.9504771875 -0.8449500000 -2.4492232000
323 1 -2.8431465625 -0.4758218750 -3.2823087920
324 1 -2.7779881250 -0.9871993750 -2.3809920640
325 1 -6.1577357188 0.9795400000 -3.2850934720
326 1 -6.1889255000 0.4223003125 -2.4338103200
327 1 -5.0202903125 1.0253887500 -3.2020322960
328 1 -5.0903265625 0.4452650000 -2.4570980160
329 1 -3.9304150000 0.8014662500 -3.2720378560
330 1 -3.8935559375 0.2867696875 -2.3728323040
331 1 -6.1690621875 2.0394631250 -3.2472736320
332 1 -6.1452737813 1.4852871875 -2.3952263120
333 1 -5.0649700000 2.0932131250 -3.2955845920
334 1 -5.0205456250 1.5887290625 -2.3891647760
335 1 -2.7892218750 1.8129740625 -3.1841455840
336 1 -3.9240187500 1.3573890625 -2.4537564000
337 1 -2.7662168750 0.6419900000 -3.2252681840
338 1 -2.8245356250 1.2100065625 -2.4508810560
339 1 -2.2682096875 -1.6652018750 -4.0985567840
340 1 -2.2870625000 0.0145796875 -4.8904679680
341 1 -2.2849796875 1.6879784375 -4.0813953840
342 1 -3.3463271875 1.8464871875 -4.0637547600
343 1 -3.8784925000 1.9497812500 -3.2043766080
344 1 -2.7880931250 0.0685178125 -2.4375534480
345 1 -6.7178367432 -0.7896143750 -4.8996638880
346 1 -5.0318734375 -1.2585159375 -6.4632259216
347 1 -3.9010809375 -1.3668759375 -6.4355545306
348 1 -5.0854353125 -0.0854759375 -6.4504266646
349 1 -2.2163409375 -0.5007887500 -3.9911069920
350 1 1.6413637500 -2.0808506250 -3.2325342560
351 1 -1.6571796875 0.5447965625 -3.1765945680
352 1 -1.1305909375 -1.7946184375 -4.0052635280
353 1 -0.5602765625 -1.9268300000 -3.2458100560
354 1 0.0239993750 -1.9734043750 -4.0180342000
355 1 1.1153259375 -2.1415343750 -4.0950986000
356 1 -2.2182759375 -1.0470231250 -4.8064483440
357 1 -1.6350078125 -0.5995006250 -6.3968452767
358 1 -1.7238296875 -1.2135809375 -5.7129601192
359 1 -1.1618600000 -1.2570243750 -4.8764798080
360 1 -0.5696693750 -0.7506456250 -6.4500909487
361 1 -0.5174243750 -0.7559803125 -3.1842103440
362 1 -0.5753668750 -1.3199253125 -5.6583635536
363 1 -0.0163668750 -1.4562756250 -4.9031350240
364 1 0.6154643750 -1.4989531250 -5.5959193712
365 1 -0.0043403125 -0.8985790625 -4.0881174720
366 1 1.1766009375 -1.5331784375 -4.8051920000
367 1 1.0904396875 -0.9584700000 -4.0640008480
368 1 1.7001662500 -1.5844021875 -5.6856676648
369 1 -2.2027018750 0.5716178125 -4.0451686400
370 1 -1.6775912500 -0.0087075000 -5.6377504456
371 1 -1.0645590625 -0.7214325000 -4.0293024400
372 1 -1.1238587500 -0.1798206250 -4.8778527200
373 1 -0.5159059375 -0.1922637500 -5.6240096688
374 1 0.0356228125 -0.2924940625 -4.8280393280
375 1 0.6056146875 0.1670953125 -6.4341291630
376 1 -0.0108037500 0.2602575000 -4.0090973200
377 1 0.5671431250 -0.4228109375 -5.7004536680
378 1 1.1119665625 -0.3750675000 -4.8479336000
379 1 1.6800906250 -0.4762250000 -5.6604747296
380 1 1.1666034375 0.1626878125 -4.0012225040
381 1 -2.1969775000 1.1164815625 -4.8722056480
382 1 -1.6091675000 1.0760481250 -5.6415829424
383 1 -1.1537168750 0.3894456250 -4.0933371280
384 1 -0.5042825000 1.4821696875 -6.4572842305
385 1 -1.0669778125 1.0018328125 -4.7935481520
386 1 -0.5702203125 0.8781003125 -5.7154844640
387 1 -0.0219300000 0.8119609375 -4.8353313040
388 1 0.0649703125 1.3889940625 -4.0320223600
389 1 0.5284296875 0.7583318750 -5.6925425864
390 1 1.0778353125 0.6888734375 -4.8912839440
391 1 1.6986612500 0.6444759375 -5.6262309368
392 1 1.1778371875 1.8175025000 -4.8609503600
393 1 -1.7284521875 -1.7581356250 -3.2562234640
394 1 -0.6017715625 -1.3571606250 -2.4641698080
395 1 0.5811853125 -2.0326234375 -3.2152433360
396 1 1.7269337500 -1.5199425000 -2.4051734480
397 1 -1.6641537500 -1.1933440625 -2.4378642960
398 1 -0.5301093750 -0.1901809375 -2.3896569520
399 1 -0.6105865625 0.3415946875 -3.2548116960
400 1 0.5465837500 -0.9506762500 -3.2110857440
401 1 1.6491575000 -0.9904512500 -3.2746282560
402 1 -1.6399259375 1.1024528125 -2.3856677360
403 1 -1.6505684375 -0.6336721875 -3.2471570640
404 1 -0.5223156250 1.4366434375 -3.2729444960
405 1 -1.7146518750 -0.0757875000 -2.4582248400
406 1 -0.5219662500 0.8980953125 -2.4210914560
407 1 0.5601959375 0.1598659375 -3.2767523840
408 1 1.7415268750 0.1154012500 -3.2181057280
409 1 1.6699318750 -0.4593340625 -2.4137606240
410 1 -1.7209943750 1.6211000000 -3.2773481760
411 1 0.6017043750 1.3211346875 -3.1933415040
412 1 1.1279034375 1.2347181250 -4.0785070880
413 1 1.6386628125 0.6656803125 -2.4277876400
414 1 1.6728478125 1.2373921875 -3.2285709440
415 1 -1.7087259375 2.1600378125 -5.7200966712
416 1 -1.1776087500 2.1118778125 -4.8460037520
417 1 -0.6023493750 2.0383478125 -5.6456757744
418 1 -0.0350046875 1.9138090625 -4.8986536320
419 1 0.5813600000 1.8765603125 -5.6024614264
420 1 1.7096665625 1.7733871875 -5.7003228528
421 1 1.6823750000 1.1658375000 -6.4595276464
422 1 -1.6576768750 2.1825993750 -2.4441978240
423 1 -0.6195762500 1.9828778125 -2.4482129440
424 1 0.5610290625 1.8583525000 -2.3663174480
425 1 0.5578981250 -1.5009553125 -2.3699828640
426 1 0.5987750000 -0.3676096875 -2.4240056560
427 1 0.5312784375 0.7141225000 -2.4562431840
428 1 -1.1103406250 1.5700106250 -3.9990465680
429 1 1.7509868750 1.7943765625 -2.4130871200
430 1 -0.5144681250 -1.8925778125 -6.4242905647
431 1 2.2379484375 -0.4645075000 -4.8508478000
432 1 2.2324525000 -2.0832021875 -4.0059111280
433 1 2.2328959375 1.2978340625 -4.0470207760
434 1 0.5791428125 1.3362653125 -6.4543820758
435 1 6.7140334375 -1.9384131250 -4.8825283920
436 1 6.6894428125 2.0733525000 -4.0628740240
437 1 2.2517756250 -1.0037543750 -4.0291081600
438 1 2.2450837500 0.1440231250 -4.1171040480
439 1 6.6987550000 -1.3671446875 -4.0826387760
440 1 6.7059709375 0.3155931250 -4.8043371680
441 1 6.7077984375 0.9121912500 -4.0695054480
442 1 3.3551153125 -1.8384515625 -4.0205727920
443 1 4.4823065625 -1.6853043750 -4.0910964320
444 1 4.9989246875 -2.1547703125 -5.7122101984
445 1 5.5814806250 -2.1215931250 -4.9355927360
446 1 5.6277325000 -1.5705615625 -4.0696479200
447 1 6.1808065625 -1.9789137500 -5.6899716144
448 1 2.2853290625 -1.5426115625 -4.8891468640
449 1 2.8359306250 -0.9493862500 -6.4217294362
450 1 2.7876362500 -0.7965615625 -3.2353707440
451 1 2.8080209375 -1.5494646875 -5.7742697064
452 1 3.3311293750 -1.3209196875 -4.9189235120
453 1 3.3827562500 -0.7933768750 -3.9943579440
454 1 3.9581096875 -1.2844234375 -5.6790517832
455 1 4.4510912500 -1.1069275000 -4.8161234880
456 1 4.4605512500 -0.5116865625 -4.0647779680
457 1 5.0148212500 -1.0681871875 -5.6462650904
458 1 5.5782421875 -0.9998171875 -4.8433744960
459 1 5.5858881250 -0.3936112500 -4.1098638800
460 1 6.1415690625 -0.8562912500 -5.6424209368
461 1 2.7693075000 -0.2993068750 -5.7048171968
462 1 3.3350531250 -0.2910562500 -4.9002208240
463 1 4.0021175000 0.4718309375 -6.4428435276
464 1 3.3642931250 0.2611578125 -4.0609182720
465 1 3.9036609375 -0.1158312500 -5.6762411992
466 1 4.4880846875 0.0224675000 -4.9209828800
467 1 4.4973162500 0.5203134375 -3.9905112000
468 1 5.0795900000 -0.0133971875 -5.6790673256
469 1 5.6145503125 0.2000843750 -4.8493453680
470 1 5.5691853125 0.7707750000 -4.0599857280
471 1 6.1850125000 0.2292706250 -5.7033898864
472 1 2.2550812500 0.7435909375 -4.8560026960
473 1 2.8337671875 0.7809606250 -5.6408628112
474 1 3.3828637500 0.8496800000 -4.8024202720
475 1 3.3575071875 1.4573506250 -4.0682232000
476 1 3.8806021875 1.0472112500 -5.7050555136
477 1 4.4448428125 1.0621403125 -4.8600955280
478 1 5.0932559375 1.7300109375 -6.4676736384
479 1 4.5147715625 1.6102156250 -4.0360374800
480 1 4.9851378125 1.1769100000 -5.6751454600
481 1 5.5723565625 1.2984253125 -4.9437136400
482 1 6.1909518750 1.8781056250 -6.4240395550
483 1 5.6328790625 1.8087681250 -4.0276057280
484 1 6.2089043750 1.3016906250 -5.6263345528
485 1 2.8020143750 -2.0111503125 -3.2086119120
486 1 3.9469968750 -1.8559203125 -3.2529336560
487 1 5.0423546875 -1.5979740625 -3.2815575760
488 1 5.0426771875 -2.1430796875 -2.4145766000
489 1 6.1638350000 -1.4020150000 -3.2134041520
490 1 6.1385456250 -1.9856459375 -2.4456095920
491 1 2.8233128125 -0.2609025000 -2.4014950800
492 1 2.7969618750 -1.3927431250 -2.5016010880
493 1 3.9515521875 -0.7048506250 -3.1866064640
494 1 3.9080146875 -1.3039750000 -2.4562431840
495 1 5.0458081250 -0.5661756250 -3.2650955840
496 1 5.0512771875 -1.0941618750 -2.3645559760
497 1 6.1302950000 -0.3194228125 -3.2908700640
498 1 6.1426843750 -0.8338371875 -2.4142398480
499 1 2.8013693750 1.3595928125 -3.2508483840
500 1 2.7842634375 0.3021421875 -3.2448516080
501 1 3.8830746875 0.5074806250 -3.2265374800
502 1 3.9309390625 -0.0881500000 -2.4953841280
503 1 5.0574450000 0.5804193750 -3.1879146160
504 1 5.0518953125 -0.0053750000 -2.4485237920
505 1 6.1558262500 0.7286350000 -3.2763638240
506 1 6.1775681250 0.2151881250 -2.3816914720
507 1 3.9229571875 1.5931231250 -3.2665332560
508 1 3.9377787500 1.0472112500 -2.3983606960
509 1 5.0474071875 1.7870800000 -3.2167328160
510 1 5.0443300000 1.1957628125 -2.4833258160
511 1 6.1710643750 1.8916775000 -3.1848708960
512 1 6.1776487500 1.2964903125 -2.4626932800
513 1 2.2620418750 1.8732412500 -4.8519746240
514 1 2.8203968750 1.8829028125 -5.6595318240
515 1 3.3663625000 2.0220346875 -4.8442422800
516 1 3.9433418750 2.1356890625 -5.6301916584
517 1 4.4989421875 2.1825725000 -4.8218741760
518 1 3.8821878125 2.1162853125 -2.4183715360
519 1 2.7910225000 0.8355571875 -2.3749564320
520 1 2.8059650000 1.9413693750 -2.4683274000
521 1 3.9387193750 -0.6677631250 -6.4265320378
522 1 5.0966018750 0.5840609375 -6.4305108922
523 1 -3.9408156250 3.1080400000 -3.1994807520
524 1 -6.1238584375 3.1754425000 -6.4247094324
525 1 -6.6822952719 3.1329665625 -4.0327347200
526 1 -6.1303393438 2.5910590625 -5.6239138240
527 1 -5.5819576563 2.7248831250 -4.8183771360
528 1 -5.5955322188 3.3040662500 -4.0299241360
529 1 -5.0405943750 2.6586362500 -5.6754148616
530 1 -4.4835025000 2.5762240625 -4.8744592960
531 1 -4.4976656250 3.1467937500 -4.0691686960
532 1 -3.8877778125 2.5527218750 -5.6424960584
533 1 -3.3249615625 2.4160087500 -4.8630097280
534 1 -2.7475925000 2.3439703125 -5.6592766696
535 1 -6.1370822813 4.3407425000 -6.4379497439
536 1 -6.6678346406 4.2644309375 -4.0433553600
537 1 -6.2043436875 3.7613578125 -5.6768175632
538 1 -5.6269517813 3.8152018750 -4.9111393600
539 1 -5.5851006875 4.3543009375 -4.0547660720
540 1 -5.0001878125 3.7865128125 -5.6010185736
541 1 -4.4274412500 3.7173231250 -4.8462109840
542 1 -4.5157256250 4.2767396875 -4.0524865200
543 1 -3.8824700000 3.6285550000 -5.6782461688
544 1 -3.3307396875 3.5660303125 -4.7970322400
545 1 -2.7538812500 4.0548596875 -6.4288394366
546 1 -3.3097368750 4.1313862500 -3.9949796400
547 1 -2.8320875000 3.4473906250 -5.7232763872
548 1 -6.1508194375 4.9263756250 -5.6663821368
549 1 -5.5906194688 4.9349756250 -4.8524279440
550 1 -5.6265419375 5.4726100000 -4.0291599680
551 1 -5.0429459375 4.8727331250 -5.6857220632
552 1 -4.4869559375 4.8714162500 -4.8198018560
553 1 -3.9209281250 5.9078775000 -5.6056346664
554 1 -4.4307468750 5.4132431250 -4.0018312480
555 1 -3.9603806250 4.7630159375 -5.7079269720
556 1 -3.4247618750 4.6432071875 -4.8853389760
557 1 -3.3212393750 5.2100278125 -4.0885578400
558 1 -2.8089615625 4.6133625000 -5.6143125064
559 1 -6.7138486719 5.9640865625 -4.8565725840
560 1 -6.1697716875 6.0266515625 -5.6868553632
561 1 -5.6158940625 6.0440531250 -4.8286221680
562 1 -5.5519906875 6.5911609375 -3.9983860160
563 1 -5.0933500000 6.0200537500 -5.7062911344
564 1 -4.5372256250 5.9362709375 -4.8938225360
565 1 -4.4624056250 6.4976493750 -4.0956166800
566 1 -3.3266681250 5.7813096875 -4.8828133360
567 1 -3.4223565625 6.3457653125 -4.0998001760
568 1 -2.7432925000 5.6942078125 -5.6356781256
569 1 -6.1531548750 3.1840021875 -3.2067079680
570 1 -6.1130640938 2.5938809375 -2.4359733040
571 1 -5.0356493750 3.1868375000 -3.2211753520
572 1 -5.0272240625 2.6239675000 -2.4048237440
573 1 -3.9367709375 2.5147878125 -2.4375016400
574 1 -3.4088787500 2.9711387500 -4.0514892160
575 1 -2.8375162500 2.8989525000 -3.2869844640
576 1 -6.1337874063 4.3437659375 -3.1988590560
577 1 -6.1742033750 3.7490356250 -2.4281114400
578 1 -5.0525134375 4.3434434375 -3.1849486080
579 1 -5.0251009375 3.7590465625 -2.4410116320
580 1 -3.9363543750 4.1801106250 -3.2983174640
581 1 -3.8630662500 3.6643659375 -2.4000962640
582 1 -2.7350015625 4.0253778125 -3.2502396400
583 1 -2.8025384375 3.4542437500 -2.4573052480
584 1 -6.1791618125 5.4440284375 -3.2191677920
585 1 -6.1805687188 4.8965443750 -2.3986067840
586 1 -5.0355284375 5.4446331250 -3.2803271360
587 1 -5.0057240625 4.9343440625 -2.4140844240
588 1 -3.8627303125 5.3241525000 -3.2302158480
589 1 -3.9333578125 4.7387612500 -2.4699593520
590 1 -2.7869778125 5.1723759375 -3.1793274400
591 1 -2.8669712500 4.5718406250 -2.4305723200
592 1 -6.1600899688 6.5973556250 -3.2816482400
593 1 -6.1694774063 6.0422256250 -2.4608670480
594 1 -4.9802331250 6.5900993750 -3.2080290720
595 1 -5.1032937500 6.0096531250 -2.4533937440
596 1 -3.9198262500 6.4591106250 -3.1830446640
597 1 -3.9724609375 5.8759096875 -2.4141750880
598 1 -2.8715400000 6.2459784375 -3.2752758560
599 1 -2.7496215625 5.7282853125 -2.3726380240
600 1 -2.2953400000 3.3749221875 -4.8560804080
601 1 -2.2803706250 5.0633306250 -4.1105762400
602 1 -2.2643934375 6.2085281250 -3.9940082400
603 1 -2.7357809375 2.3839603125 -2.3997983680
604 1 -5.0040175000 5.4433431250 -6.4635478306
605 1 -6.7169500469 4.8200178125 -4.8669730400
606 1 -5.0585737500 3.2489993750 -6.4443381884
607 1 -6.1468862813 6.6112231250 -6.4740626398
608 1 -5.0141896875 6.6161681250 -6.4534413721
609 1 -3.8819996875 5.3574103125 -6.4404762906
610 1 -1.7360175000 6.6452468750 -2.4838179920
611 1 -2.1683421875 5.6618234375 -4.8276637200
612 1 -1.7391215625 6.7049093750 -5.6562523776
613 1 -1.1827150000 6.5391712500 -4.8768165600
614 1 -0.5807284375 6.5486178125 -5.6034069224
615 1 0.0089762500 6.4214721875 -4.8555752800
616 1 1.1554503125 6.2951731250 -4.8778786240
617 1 0.5681375000 6.3005615625 -5.6529042856
618 1 1.7208331250 6.2850950000 -5.6809259376
619 1 -0.5902556250 6.5367390625 -2.3979980400
620 1 0.5759715625 6.3685284375 -2.3940865360
621 1 1.6917140625 6.2412887500 -2.4238890880
622 1 -2.2069481250 2.3016018750 -4.7883673520
623 1 -2.2101596875 2.8557375000 -3.9743859600
624 1 -1.0347412500 2.6730412500 -4.0395733760
625 1 0.0118921875 2.4876709375 -4.1109518480
626 1 1.6614393750 2.3519521875 -6.4390798059
627 1 1.1477371875 2.9287031250 -4.8730863840
628 1 -2.1744831250 3.9489721875 -4.0599857280
629 1 -1.7166675000 3.3352278125 -5.6494733008
630 1 -1.1483553125 3.2081896875 -4.8955062960
631 1 -1.1383309375 3.7722825000 -4.0992561920
632 1 -0.5471078125 2.6021987500 -6.4574009280
633 1 -0.5304050000 3.1571675000 -5.6071345080
634 1 -0.0264315625 3.6377193750 -4.0079704960