ITEM: TIMESTEP
181000
ITEM: NUMBER OF ATOMS
2304
ITEM: BOX BOUNDS pp pp pp
-6.7187500000 6.7187500000
-6.7187500000 6.7187500000
-6.4760000000 6.4760000000
ITEM: ATOMS id type x y z
1 1 -5.0482671875 -6.5521747188 -5.7008940360
2 1 -5.6175011875 -6.1910096563 -4.0731449600
3 1 -4.0727181250 -5.4033907500 -5.6904586096
4 1 -4.4940778125 -6.6134714875 -4.8761819120
5 1 -3.8937037500 -6.5450353750 -5.6691214848
6 1 -4.4228993750 -6.0451308125 -4.0260773920
7 1 -3.8473443750 -5.9592625000 -6.4426207532
8 1 -3.3471871875 -4.7795037500 -4.0601929600
9 1 -3.3468781250 -6.4111642813 -4.8901182640
10 1 -6.6272121375 -5.2063593750 -4.0414902720
11 1 -6.0091317500 -5.7339183125 -5.6258087016
12 1 -5.4887766563 -5.6347240313 -4.9292851120
13 1 -6.1468325313 -5.1778584375 -6.4169857662
14 1 -5.5701702813 -4.5096921875 -4.8564948720
15 1 -5.0616643750 -5.0990206250 -6.3796118636
16 1 -4.5412568750 -5.5317470938 -4.9110875520
17 1 -4.4688421875 -4.9464915625 -4.0592345120
18 1 -3.8697715625 -3.7837850000 -3.1773328320
19 1 -3.3137815625 -5.8521642813 -4.0552064400
20 1 -2.8769015625 -5.2408400000 -5.6509679616
21 1 -6.6980813781 -4.6659837500 -4.7993117920
22 1 -4.4391721875 -4.3437525000 -4.8114996240
23 1 -5.0172131250 -3.9584187500 -6.3766717596
24 1 -5.5639944063 -4.0032193750 -4.0232020480
25 1 -3.8592231250 -4.2963181250 -5.6241055136
26 1 -3.4319240625 -5.3360984375 -4.8909601440
27 1 -3.9587278125 -3.7655368750 -6.4202526492
28 1 -4.4583743750 -3.7868756250 -3.9962618880
29 1 -3.3115240625 -4.1874475000 -4.8076528800
30 1 -3.9173940625 -4.7852684375 -3.2464447040
31 1 -2.7613928125 -4.0533546875 -5.6490005528
32 1 -2.7760665625 -4.6569134375 -6.4157717753
33 1 -6.1890585313 -3.5184615625 -5.6511272712
34 1 -5.6018478438 -3.4282018750 -4.8375979040
35 1 -5.6790086563 -2.8592715625 -4.0554395760
36 1 -6.1726096875 -4.5837731250 -5.6177240632
37 1 -5.1029443750 -2.7817640625 -3.2828657280
38 1 -5.0794690625 -3.3743175000 -5.6690735624
39 1 -4.5146506250 -3.2798115625 -4.8776972960
40 1 -3.8970496875 -2.6308475000 -6.4109542789
41 1 -4.4847521875 -2.7381459375 -4.0180601040
42 1 -3.9080953125 -3.1774715625 -5.6203597952
43 1 -3.3401862500 -3.0241631250 -4.8607690320
44 1 -3.9335190625 -2.5971193750 -3.2100236800
45 1 -2.7465846875 -3.0036978125 -5.6503941880
46 1 -6.6981052969 -6.3258415313 -4.0708006480
47 1 -6.1350908438 -6.3112080938 -3.2338035520
48 1 -5.0308253125 -6.1439246563 -3.3252705760
49 1 -5.0453243750 -6.6675675031 -2.4441589680
50 1 -3.8665465625 -5.9321765313 -3.2552132080
51 1 -3.9510012500 -6.4723882188 -2.4319193280
52 1 -2.8100096875 -4.6561743750 -3.2224835040
53 1 -2.7453618750 -5.8134669688 -3.2280658160
54 1 -6.1068304375 -5.1308271875 -3.1741595920
55 1 -6.1342174063 -5.7250253750 -2.4587558720
56 1 -5.5765141250 -5.0931081250 -4.0367109840
57 1 -4.9945709375 -5.6195772813 -2.4554919680
58 1 -5.0149959375 -5.0219162500 -3.2128213120
59 1 -2.8181662500 -4.1126946875 -2.4208971760
60 1 -6.1423390313 -4.0356575000 -3.2111505040
61 1 -6.0895135313 -4.5337453125 -2.3855252640
62 1 -5.0296428125 -3.9168700000 -3.2168493840
63 1 -4.9506303125 -4.4406637500 -2.3532359280
64 1 -3.3714553125 -3.5975278125 -4.0702048560
65 1 -6.2404112813 -2.9497328125 -3.3397638640
66 1 -6.1170899688 -3.4248962500 -2.4081394560
67 1 -5.0581571875 -3.2917171875 -2.4591832880
68 1 -3.9551400000 -3.1614271875 -2.4849966240
69 1 -2.7821671875 -2.4548700000 -3.2132746320
70 1 -2.7900012500 -3.5436434375 -3.2397226160
71 1 -2.2708300000 -5.1479196875 -4.9271221280
72 1 -2.8399753125 -5.2325893750 -2.4433300400
73 1 -6.1377783438 -2.4244475000 -5.6587754272
74 1 -5.5623281563 -2.2631975000 -4.8275989600
75 1 -5.0597293750 -2.2519637500 -5.6758591152
76 1 -6.1722818125 -2.3498290625 -2.4724979440
77 1 -3.3613637500 -2.5090365625 -3.9963136960
78 1 -5.0012225000 -6.0370280000 -6.4105711587
79 1 -2.7359287500 -6.3805146875 -5.6336187576
80 1 -2.7486406250 -6.3513472500 -2.3893331520
81 1 -3.8995087500 -5.3794572188 -2.4601158320
82 1 -2.7904850000 -3.0127681250 -2.3962365680
83 1 -4.9898812500 -4.6008521875 -5.6318546952
84 1 -2.2433503125 -4.6232256250 -4.0235258480
85 1 -6.6663152625 -5.7729569375 -4.8830723760
86 1 -6.6924544250 -4.0000346875 -4.0433683120
87 1 -6.6975976281 -2.5551540625 -4.7863338880
88 1 -4.0327012500 -4.3248996875 -2.2168643200
89 1 -2.7856743750 -5.7962925000 -6.4422820584
90 1 -6.1101710000 -4.0708503125 -6.4733254379
91 1 -2.8127509375 -2.4498846875 -6.4674225380
92 1 -2.1882162500 -4.0600465625 -4.8515083520
93 1 -2.2337693750 -3.5080071875 -4.0351049360
94 1 -2.2257875000 -5.6802838750 -4.0900991280
95 1 -1.6844309375 -4.5822815625 -3.1843139600
96 1 -1.1078681250 -6.2894998125 -4.8659239280
97 1 -2.1862678125 -6.2789271875 -4.8019410480
98 1 -1.6813537500 -6.2950172500 -5.6822858976
99 1 -1.0670450000 -5.1863240625 -4.8687992720
100 1 -1.1182956250 -5.7141571250 -4.0278388640
101 1 0.0448812500 -6.4625264375 -4.8999747360
102 1 0.0422475000 -5.3326450000 -4.8242314400
103 1 -0.0239725000 -5.9251352813 -4.0654773760
104 1 1.2100065625 -6.6243156844 -4.8377792320
105 1 0.6471634375 -6.5458214688 -5.6418640008
106 1 1.1191959375 -6.0603702813 -4.0345350480
107 1 -1.6777121875 -5.7065703125 -6.4538273417
108 1 -1.6535246875 -5.1645284375 -5.6131157416
109 1 -0.5716178125 -4.1876893750 -5.6913898584
110 1 -1.1762784375 -4.6215728125 -4.0911870960
111 1 -1.7347678125 -4.6287215625 -6.4530894662
112 1 -0.5088512500 -5.2523156250 -5.6792357016
113 1 -0.0139884375 -4.7852684375 -4.0438086800
114 1 0.5515421875 -5.4482975313 -5.7208517728
115 1 1.1128534375 -5.5086601250 -4.8522466160
116 1 1.7408684375 -4.9792118750 -6.4603550202
117 1 1.1613493750 -4.9656803125 -3.9957179040
118 1 -1.6384746875 -4.0334671875 -5.6912616336
119 1 -1.1046296875 -4.0266543750 -4.8203328880
120 1 -1.6420490625 -3.4751525000 -3.2907534960
121 1 -0.0053615625 -4.2069856250 -4.8491640400
122 1 1.0733740625 -3.8757915625 -4.0834158960
123 1 -0.0631293750 -3.6775884375 -3.9187182640
124 1 0.5379971875 -4.3038968750 -5.6910556968
125 1 1.1171668750 -3.2905884375 -4.7994931200
126 1 1.0792059375 -4.4461731250 -4.8743038720
127 1 -2.2247931250 -2.9202912500 -4.7835362560
128 1 -1.7101637500 -2.9196731250 -5.7124057736
129 1 -1.1780387500 -3.0099865625 -4.8366524080
130 1 -0.5521871875 -2.4415131250 -6.4346441345
131 1 -1.0969971875 -2.4129987500 -4.0807995920
132 1 -0.6052653125 -2.9936331250 -5.6489940768
133 1 -0.0232065625 -3.1782912500 -4.9065802560
134 1 0.5850553125 -3.1488496875 -5.6373515240
135 1 1.0570878125 -2.6821384375 -4.0900861760
136 1 1.5897503125 -2.8425553125 -3.2675435120
137 1 1.6669756250 -3.3713478125 -5.6288899824
138 1 -1.6715578125 -5.7092820000 -3.2186885680
139 1 -0.5449309375 -5.7435489688 -3.2068374880
140 1 -0.5635418750 -6.3669293750 -2.4896852480
141 1 0.5401068750 -6.0026387500 -3.2571948640
142 1 0.6158943750 -6.5160547188 -2.3952133600
143 1 1.6912168750 -6.1679280625 -3.2708333200
144 1 -1.7059578125 -5.1579575000 -2.4147579280
145 1 -0.6011131250 -4.6262221875 -3.2450458880
146 1 -0.5044168750 -5.2005543750 -2.4141103280
147 1 0.5686481250 -4.8807956250 -3.2715197760
148 1 0.6246959375 -5.4172555625 -2.4653354880
149 1 1.7605946875 -4.9984409375 -3.2232217680
150 1 1.6815284375 -5.5899946250 -2.4900738080
151 1 -1.6844712500 -2.9399906250 -2.4155350480
152 1 -1.6826840625 -4.0001556250 -2.3995911360
153 1 -0.9782365625 -3.5234200000 -3.8628433360
154 1 -0.5368281250 -4.0569559375 -2.5648586560
155 1 0.5199909375 -3.7219321875 -3.2252940880
156 1 0.5552778125 -4.3131956250 -2.4589242480
157 1 1.6243921875 -3.9037281250 -3.2433103200
158 1 1.6605390625 -4.4499221875 -2.4009251920
159 1 -1.6653362500 -2.3653225000 -3.2607955200
160 1 -0.0384043750 -2.6112421875 -4.0999944560
161 1 -0.5854450000 -3.1374278125 -2.5977567360
162 1 0.5127481250 -2.6429143750 -3.2374042080
163 1 0.5547000000 -3.1783853125 -2.3722883200
164 1 1.6617618750 -5.5532094688 -5.6836160680
165 1 2.2225356250 -5.7137445938 -4.8902089280
166 1 2.1992753125 -3.9611600000 -4.0814601440
167 1 -2.2317134375 -2.3215565625 -4.0348977040
168 1 -0.5529262500 -2.4971846875 -3.1789518320
169 1 1.7247300000 -3.3639706250 -2.4039559600
170 1 2.2150240625 -2.8437378125 -3.9988781920
171 1 -0.5427675000 -6.3861745625 -5.6482402704
172 1 -1.6219868750 -6.3035016875 -2.4301190000
173 1 1.7081615625 -2.2654146875 -2.4832092480
174 1 1.6879918750 -4.4240953125 -5.6157359312
175 1 0.5857809375 -3.7211393750 -6.4412067834
176 1 1.7416612500 -6.1104451250 -6.4683773076
177 1 1.7149340625 -2.2552962500 -5.6695761000
178 1 1.7286940625 -6.7156398772 -5.7218969992
179 1 1.7783859375 -6.7069518481 -2.4296786320
180 1 -0.5851762500 -5.8211169375 -6.4546917582
181 1 -0.4960721875 -3.5717815625 -6.4268722869
182 1 0.6382140625 -4.8603034375 -6.4751960953
183 1 1.6706440625 -2.8128584375 -6.4601427369
184 1 6.7004615625 -3.4907400000 -4.7362485040
185 1 2.2966165625 -6.2364687188 -4.0040460400
186 1 2.2619343750 -3.3810362500 -4.8435428720
187 1 2.2560621875 -5.1615184375 -4.0952281200
188 1 6.2397300000 -5.9036016875 -5.6427784120
189 1 6.1809006250 -4.7909390625 -5.6549571776
190 1 3.3974165625 -6.4251433125 -4.0785588960
191 1 4.5195553125 -6.5395663125 -4.0886355520
192 1 5.1173493750 -6.5850085781 -6.4275149651
193 1 5.6435081250 -6.5663217188 -4.0204303200
194 1 3.3890584375 -4.6900637500 -4.8620642320
195 1 2.8361993750 -5.7432775313 -5.6329193496
196 1 3.3732828125 -5.2583759375 -4.0806830240
197 1 3.9428446875 -5.9747210000 -5.6810204872
198 1 4.4996946875 -5.9657434063 -4.8520782400
199 1 5.1190425000 -4.9136100000 -5.6494435112
200 1 4.5301709375 -5.4064571875 -4.0167649040
201 1 5.0642712500 -6.0103680000 -5.6565178936
202 1 5.6388184375 -5.9964521250 -4.8707938800
203 1 5.6372596875 -5.4664354688 -4.0613327360
204 1 2.2480131250 -4.5531221875 -4.8114089600
205 1 2.7370171875 -4.1218187500 -3.2627771760
206 1 3.3474559375 -4.1422303125 -4.0176067840
207 1 3.3956965625 -5.8351268750 -4.8349168400
208 1 3.3738471875 -3.6168778125 -4.8644214960
209 1 3.9426834375 -4.8101412500 -5.6726081632
210 1 4.5076631250 -4.8830934375 -4.8895742800
211 1 4.4810434375 -4.3460906250 -4.0161561600
212 1 5.0102256250 -4.3695928125 -6.4738064363
213 1 5.6369640625 -4.8461940625 -4.7879010800
214 1 5.6301378125 -4.2971109375 -4.0393790960
215 1 6.2150318750 -5.3471575000 -6.4643454277
216 1 2.8212031250 -4.0960859375 -6.4378151726
217 1 3.9651509375 -3.6452578125 -5.6557848104
218 1 3.3454940625 -2.4889743750 -4.8067332880
219 1 4.5395503125 -3.2012828125 -4.0887132640
220 1 4.4533218750 -2.6166306250 -4.8315881760
221 1 5.0101181250 -2.6205140625 -5.6505327744
222 1 5.5740900000 -3.7405834375 -4.8953767760
223 1 6.1872296875 -3.7433246875 -5.6565645208
224 1 5.7127784375 -3.2038225000 -4.0140320320
225 1 2.8735421875 -6.2910075000 -3.2216286720
226 1 3.9679056250 -6.4651561563 -3.2369379360
227 1 5.0408900000 -6.5944821500 -3.2525321440
228 1 6.2058540625 -6.4923120000 -3.2291667360
229 1 2.7948521875 -5.7365668438 -2.4148744960
230 1 3.9270421875 -5.4053727813 -3.2602644880
231 1 3.9719100000 -5.9199470625 -2.3875328240
232 1 5.1081178125 -5.4613896875 -3.2156966560
233 1 5.1049331250 -6.0438932188 -2.4430969040
234 1 6.2199231250 -5.3661043750 -3.2704059040
235 1 6.1873775000 -5.9076678750 -2.4292123600
236 1 2.8509806250 -4.6432609375 -2.3847610960
237 1 2.8335790625 -5.1878290625 -3.2412768560
238 1 3.9272840625 -4.2185956250 -3.2407976320
239 1 3.9417025000 -4.8284296875 -2.4926124000
240 1 5.1020440625 -4.3041656250 -3.2502396400
241 1 5.0064631250 -4.8793712500 -2.4745443600
242 1 6.2118203125 -4.3265659375 -3.1970716800
243 1 6.1755525000 -4.8397171875 -2.3589089040
244 1 3.3772468750 -3.0649593750 -4.0308048720
245 1 2.8056828125 -2.9752640625 -3.2460043360
246 1 6.2512459375 -3.1298625000 -3.2905462640
247 1 3.9049643750 -3.6808940625 -2.4521633040
248 1 3.9838962500 -3.1038878125 -3.2578424640
249 1 5.0308790625 -3.7385543750 -2.4415815200
250 1 5.0714737500 -3.1929246875 -3.2736957120
251 1 6.1370271875 -3.7089246875 -2.4735470560
252 1 2.8362665625 -2.4080671875 -5.6890066904
253 1 4.5008637500 -3.7910143750 -4.8207862080
254 1 3.8939321875 -2.5946871875 -5.6708855472
255 1 5.5949046875 -2.6921896875 -4.9252958960
256 1 6.2067678125 -2.5436515625 -5.6768628952
257 1 2.2692040625 -2.3058212500 -4.8522077600
258 1 2.8139065625 -3.5550518750 -2.4896722960
259 1 3.8770009375 -2.5803628125 -2.3974799600
260 1 5.0604012500 -2.6602487500 -2.4209360320
261 1 6.1426843750 -2.5974418750 -2.4621622480
262 1 2.7611778125 -2.3905984375 -2.4940889280
263 1 3.9703243750 -5.3828461563 -6.4285699055
264 1 2.7888725000 -4.6774593750 -5.6424390696
265 1 2.8051184375 -3.5416815625 -5.6558197808
266 1 3.8819862500 -4.2263893750 -6.4343572477
267 1 5.0337412500 -3.7900065625 -5.7106274640
268 1 6.1497390625 -3.1472371875 -6.4041193790
269 1 5.0654403125 -3.1863134375 -6.4415884788
270 1 2.7529137500 -2.9765137500 -6.4623046847
271 1 6.1731740625 -6.4865177500 -6.4044414952
272 1 -3.9357496875 -1.9958450000 -2.4342247840
273 1 -2.3122712500 -1.8044681250 -4.8832666560
274 1 -6.1787560000 -1.8603681250 -6.4467445405
275 1 -5.6481306250 -1.6751321875 -4.0035668160
276 1 -4.4859750000 -2.1866306250 -4.8239724000
277 1 -4.5048681250 -1.5854234375 -4.0769010400
278 1 -3.9805637500 -2.0075087500 -5.6940968264
279 1 -3.4146971875 -1.9595234375 -4.8564948720
280 1 -3.3337900000 -1.4201825000 -4.0142263120
281 1 -6.6965293469 -1.4649696875 -4.8214985680
282 1 -6.1841417500 -0.6960625000 -6.4254299522
283 1 -6.6886896406 -0.9201193750 -4.0585998640
284 1 -6.1736094375 -1.2815209375 -5.6676190528
285 1 -5.5854164688 -1.1902534375 -4.8929158960
286 1 -5.0854084375 -0.5650737500 -6.4349478589
287 1 -5.6245720000 -0.6254215625 -4.0167260480
288 1 -5.0172534375 -1.1483150000 -5.6769147032
289 1 -4.4835965625 -1.0084037500 -4.8351370240
290 1 -4.5036184375 -0.4442303125 -4.0442360960
291 1 -3.9273243750 -0.9187756250 -5.6617608632
292 1 -3.3704609375 -0.8608331250 -4.8188952160
293 1 -3.3889106250 -0.2674465625 -4.0792453520
294 1 -2.8485618750 -0.7094059375 -5.6631454320
295 1 -6.1645471875 0.4021709375 -6.4585546922
296 1 -6.6551516563 0.2973584375 -4.0899178000
297 1 -6.1938234688 -0.1484306250 -5.5956318368
298 1 -5.5766740313 -0.1159521875 -4.8593054560
299 1 -5.0729653125 0.6028868750 -6.4344721319
300 1 -5.6097477500 0.4931696875 -4.0699328640
301 1 -5.0418978125 0.0238381250 -5.6857376056
302 1 -4.4820646875 0.1161671875 -4.8784226080
303 1 -3.9403856250 0.7275868750 -6.4435207877
304 1 -4.5084021875 0.6462765625 -4.0333175600
305 1 -3.9083103125 0.1574203125 -5.6678599600
306 1 -3.3615250000 0.3230375000 -4.8437889600
307 1 -3.3924581250 0.8732225000 -4.0374103920
308 1 -2.7951209375 0.3729846875 -5.6385223848
309 1 -6.7010310438 1.3925684375 -3.9785953600
310 1 -6.1905299375 0.9405578125 -5.6155209280
311 1 -5.6139792188 1.0361253125 -4.8642272160
312 1 -5.5318196563 1.6070712500 -4.0452722560
313 1 -5.0491406250 1.1821909375 -5.6411050136
314 1 -4.4614784375 1.2050346875 -4.8720631760
315 1 -3.9140750000 1.9092671875 -6.4328193272
316 1 -4.4589521875 1.7779156250 -4.0873144480
317 1 -3.9150693750 1.3185009375 -5.6860886048
318 1 -3.3412612500 1.4277746875 -4.8787593600
319 1 -2.8103053125 2.0386971875 -6.4470452859
320 1 -2.7598071875 1.4651981250 -5.6780000808
321 1 -6.1745675313 -1.7582028125 -3.1628395440
322 1 -5.0597428125 -1.7163450000 -3.2522601520
323 1 -5.0381353125 -2.2369540625 -2.3875587280
324 1 -3.9514178125 -1.4748865625 -3.2807416000
325 1 -2.7978756250 -1.2630981250 -3.2110080320
326 1 -6.1992804375 -0.5827978125 -3.1427121360
327 1 -6.1697004688 -1.1057987500 -2.4490548240
328 1 -5.0410243750 -0.5599540625 -3.2411473360
329 1 -5.0563565625 -1.1380353125 -2.4627321360
330 1 -3.9246234375 -0.3975215625 -3.2297236720
331 1 -3.9619393750 -0.9420225000 -2.3838156000
332 1 -2.8480915625 -0.1484440625 -3.2158391280
333 1 -2.8302868750 -0.7101987500 -2.4090720000
334 1 -6.1186151250 0.3384906250 -3.1262760480
335 1 -5.0370334375 0.5828650000 -3.2256437920
336 1 -5.1186931250 -0.0041656250 -2.4174648960
337 1 -3.9379937500 0.7377321875 -3.2250220960
338 1 -3.9848771875 0.1648915625 -2.4375016400
339 1 -6.1069231563 1.4746312500 -3.2658727040
340 1 -6.1917299063 0.8689493750 -2.4215059200
341 1 -4.9939259375 1.6910959375 -3.2087543840
342 1 -5.0492481250 1.1531256250 -2.4014821280
343 1 -2.8181259375 2.0688375000 -3.2579072240
344 1 -3.8638053125 1.3087721875 -2.4256246560
345 1 -2.8165806250 0.9224440625 -3.2467296480
346 1 -2.7611643750 1.5013853125 -2.4635869680
347 1 -2.8667159375 -1.8757406250 -5.6863256264
348 1 -2.2510500000 -0.7205456250 -4.8912321360
349 1 -2.2946950000 -0.1681568750 -4.0570585760
350 1 -6.6756453219 1.9773818750 -4.7923824720
351 1 -6.1669175625 2.0634087500 -5.7212740080
352 1 -5.6468715313 2.1709893750 -4.8156572160
353 1 -3.3820440625 1.9705825000 -4.0365426080
354 1 -6.1305059688 2.0064203125 -2.4573700080
355 1 -3.9407887500 1.8744103125 -3.2015012640
356 1 -2.8444365625 -1.8630421875 -2.4686900560
357 1 -2.8149278125 0.3956134375 -2.3752413760
358 1 -2.2681156250 0.9866484375 -4.0680418720
359 1 -2.7508443750 -1.2838590625 -6.4323363471
360 1 -2.2146075000 0.4030712500 -4.8380123680
361 1 -2.2300875000 1.5601609375 -4.8366524080
362 1 1.6654034375 -1.6873871875 -3.2576481840
363 1 -1.6996825000 0.9969684375 -3.2628419360
364 1 -1.6830737500 -1.2489215625 -6.4321186240
365 1 -2.2190015625 -1.2496471875 -4.0226839680
366 1 -1.7153103125 -1.8311550000 -5.6292021256
367 1 -1.1708900000 -1.3050634375 -4.0931817040
368 1 -0.5357665625 -1.8683096875 -5.6326033208
369 1 -0.6198315625 -1.3951215625 -3.2453567360
370 1 -1.1401046875 -1.8701909375 -4.8979412720
371 1 0.0350584375 -2.0288206250 -4.8535936240
372 1 -0.0684506250 -1.4617446875 -4.0633402960
373 1 0.5935478125 -2.0700871875 -5.6491119400
374 1 1.1793421875 -2.1176290625 -4.8468456320
375 1 1.0908428125 -1.5549875000 -4.0240439280
376 1 -1.6737615625 -0.6696443750 -5.6585720808
377 1 -1.1005446875 -0.7255578125 -4.8657166960
378 1 -0.6132337500 -0.2680512500 -3.2700173440
379 1 -0.5287253125 -0.7633306250 -5.6539559880
380 1 0.0235962500 -0.8785034375 -4.8156831200
381 1 0.5726121875 -0.9571262500 -5.6565722920
382 1 -0.0239859375 -0.3169906250 -4.0186299920
383 1 1.1254040625 -1.0124887500 -4.8420274880
384 1 1.1512443750 -0.4554103125 -4.0216737120
385 1 1.6758040625 -1.1323781250 -5.6977803752
386 1 -1.6781018750 0.4876334375 -5.6672991384
387 1 -1.1821237500 -0.1855315625 -4.0307789680
388 1 -1.1097628125 0.3753765625 -4.8345541840
389 1 -0.5602496875 0.3527343750 -5.6533731480
390 1 -0.0101184375 0.2566025000 -4.8138439360
391 1 0.0310003125 0.8166506250 -4.0233445200
392 1 0.5218184375 0.1301556250 -5.6863515304
393 1 1.0637796875 0.1144068750 -4.8349427440
394 1 1.6059693750 -0.0211506250 -5.6922667088
395 1 1.1789793750 0.6574700000 -4.0296521440
396 1 2.1646065625 -0.0827078125 -4.8998063600
397 1 -2.2386740625 2.1100100000 -4.0180471520
398 1 -1.6493456250 1.5717037500 -5.6339671664
399 1 -1.1211846875 0.9403696875 -4.0275668720
400 1 -1.1087415625 1.5190018750 -4.8034175760
401 1 -0.5862915625 1.4319537500 -5.6772501600
402 1 -0.0206668750 1.3868575000 -4.8343987600
403 1 0.5841684375 1.8536225000 -6.4144523550
404 1 0.0484287500 1.9466637500 -4.0340169680
405 1 0.4960990625 1.2551296875 -5.6865354488
406 1 1.0826325000 1.1912612500 -4.9095333120
407 1 1.6803728125 1.1419725000 -5.6351794736
408 1 1.7134156250 0.5716581250 -6.4247682345
409 1 -1.6775643750 -1.2172762500 -3.1796253360
410 1 -0.5122240625 -0.8171075000 -2.4403899360
411 1 0.4965559375 -1.5719859375 -3.2687610000
412 1 0.6275178125 -2.0940596875 -2.4065204560
413 1 1.6165043750 -1.1132162500 -2.4702961040
414 1 -1.6628100000 -0.6539359375 -2.4123488560
415 1 -0.5771809375 0.3035934375 -2.4780932080
416 1 -0.5412221875 0.8829512500 -3.2532963120
417 1 0.5680165625 -0.4168984375 -3.2671549520
418 1 1.7339346875 -0.5422837500 -3.2359924400
419 1 -1.7028806250 1.5591128125 -2.4383305680
420 1 -1.7556900000 -0.0906896875 -3.2239470800
421 1 -0.5269650000 1.9890590625 -3.2299697600
422 1 -1.6536993750 0.4592534375 -2.4134627280
423 1 -0.6114196875 1.4288765625 -2.4212468800
424 1 0.6095384375 0.7131146875 -3.2380647600
425 1 1.7279146875 0.5689571875 -3.1916966000
426 1 1.6150665625 0.0051868750 -2.4116883040
427 1 -1.6389853125 2.1023103125 -3.2724264160
428 1 0.5688228125 1.8601800000 -3.1784208000
429 1 1.1095075000 1.7309784375 -4.0567477280
430 1 1.6960409375 1.1538109375 -2.4283445760
431 1 2.2121753125 -1.1897293750 -4.8255784480
432 1 1.6552850000 1.7318787500 -3.2129637840
433 1 -1.7205912500 -1.8443506250 -2.4573959120
434 1 -0.5535578125 -1.9220596875 -2.3844891040
435 1 0.5412490625 -0.9866618750 -2.4864990560
436 1 0.4922290625 0.1511046875 -2.4579528480
437 1 0.5322325000 1.2707440625 -2.4246144000
438 1 -1.0753762500 2.1035465625 -4.0572399040
439 1 -0.6006159375 -1.3218200000 -6.4600624345
440 1 2.1834728125 1.5686937500 -4.0718756640
441 1 -1.6961215625 -0.0899640625 -6.4264961608
442 1 -0.5852568750 -0.1946556250 -6.4707037977
443 1 1.6338656250 1.6888653125 -6.4629592788
444 1 6.7145306250 -2.1355815625 -3.9992278960
445 1 2.2572850000 0.4685253125 -4.0798411440
446 1 6.6777656250 -0.3096403125 -4.8076399280
447 1 6.6609553125 0.8794440625 -4.8483092080
448 1 2.8401903125 -1.8200959375 -3.2615337840
449 1 3.3602753125 -0.2763421875 -4.9044302240
450 1 4.5319312500 -2.0377028125 -4.0671481840
451 1 5.0297503125 -2.0590684375 -6.4527638530
452 1 6.1042531250 -1.9890725000 -6.4448045899
453 1 5.6086378125 -2.1533593750 -4.0649981520
454 1 2.8367368750 -0.7112737500 -6.4400778870
455 1 2.8213778125 -0.7077262500 -3.2034052080
456 1 2.7376890625 -1.3003603125 -5.7032176248
457 1 3.9160368750 -0.8854237500 -3.1943906160
458 1 3.2986912500 -1.3625893750 -4.8696411520
459 1 3.8613596875 -1.4643515625 -5.6638694488
460 1 4.4387690625 -1.4960775000 -4.9156207520
461 1 5.0624840625 -1.4899096875 -5.6098868080
462 1 5.6254346875 -1.5724293750 -4.8176388720
463 1 6.1333587500 -0.9329656250 -3.3022030640
464 1 6.1735234375 -1.4272371875 -5.6298976480
465 1 2.2871296875 -0.6238090625 -4.0468783040
466 1 2.7728818750 -0.1503387500 -5.6319738536
467 1 3.3803240625 -0.8102140625 -4.0489894800
468 1 3.3056653125 0.2797418750 -4.0761757280
469 1 3.9574512500 -0.2966328125 -5.6623734928
470 1 4.4822796875 -0.3917165625 -4.8184289440
471 1 4.4333000000 0.1759103125 -4.0183839040
472 1 6.1154331250 -0.3578809375 -5.6125626912
473 1 5.5519046875 -0.3511487500 -4.8094143520
474 1 5.5812925000 -0.9763687500 -4.1076620400
475 1 2.2637887500 1.0220428125 -4.8990551440
476 1 2.8656275000 0.9769196875 -5.6439997856
477 1 3.4083278125 0.8595565625 -4.8303965920
478 1 3.3512318750 1.4324509375 -4.0421767280
479 1 3.9537425000 0.7783268750 -5.6959230584
480 1 4.4979881250 0.7255040625 -4.8316658880
481 1 5.0333381250 0.6582225000 -5.6979513416
482 1 4.4849940625 1.3143756250 -4.0444951360
483 1 5.0300593750 -0.4366650000 -5.6964243008
484 1 5.5756487500 0.7505784375 -4.8263167120
485 1 6.1351862500 1.3129512500 -3.2581921680
486 1 6.1220578125 0.7517609375 -5.6690036216
487 1 2.2462125000 -1.7536878125 -4.0126979760
488 1 3.4114587500 -1.9137553125 -4.0406354400
489 1 5.0653193750 -2.0799771875 -3.2158132240
490 1 6.1400103125 -1.9425653125 -3.2069540560
491 1 2.8141618750 -0.1443456250 -2.3950449840
492 1 2.7355659375 -1.2742512500 -2.4174648960
493 1 3.9644118750 -2.0526856250 -3.2320938880
494 1 3.8734534375 -1.4573237500 -2.4419700800
495 1 4.4609275000 -0.9727809375 -4.0341205840
496 1 4.9893571875 -1.5325200000 -2.4064038880
497 1 5.0446793750 -0.9720821875 -3.2393470080
498 1 6.1607712500 -1.4627525000 -2.3627556480
499 1 2.7606000000 1.5187600000 -3.2892251600
500 1 2.7907671875 0.4281456250 -3.1854019280
501 1 3.8609834375 0.2378437500 -3.2346065760
502 1 4.0003168750 -0.3145315625 -2.4185658160
503 1 5.0200081250 0.1265409375 -3.2917637520
504 1 5.1115578125 -0.4248803125 -2.4434336560
505 1 5.6431050000 0.1979209375 -4.0000309200
506 1 6.2169668750 0.1513868750 -3.2760788800
507 1 3.9117637500 1.3219275000 -3.2535164960
508 1 3.9843128125 0.7770100000 -2.4075307120
509 1 5.5647912500 1.3280012500 -4.0418140720
510 1 5.0206396875 1.8204856250 -2.4139808080
511 1 6.1798256250 0.7301668750 -2.4785983360
512 1 2.2872775000 2.1714193750 -4.7942734640
513 1 2.7870584375 2.0516106250 -5.7177679016
514 1 3.3366790625 2.0056543750 -4.8273010640
515 1 3.8713168750 1.9064318750 -5.6593738096
516 1 4.4651737500 1.8336946875 -4.9212937280
517 1 5.0836884375 1.8039709375 -5.6161011776
518 1 5.6751668750 1.8677184375 -4.8857016320
519 1 6.2347178125 1.8916909375 -5.6910272024
520 1 3.8803065625 1.8876462500 -2.4596495600
521 1 5.0213250000 1.2481825000 -3.1975250000
522 1 6.2187540625 1.8424962500 -2.4225679840
523 1 6.1929675000 -0.3748928125 -2.4071421520
524 1 2.8527275000 0.9987287500 -2.3956278240
525 1 5.1033071875 0.6470290625 -2.4471767840
526 1 2.8259734375 2.0668621875 -2.4482777040
527 1 5.0487778125 1.2714159375 -6.4460531627
528 1 3.9690478125 -2.0108950000 -6.4662829174
529 1 3.9157278125 -0.8779928125 -6.4302811238
530 1 2.7555071875 0.4149634375 -6.4440523378
531 1 6.2082056250 0.1963621875 -6.4690208148
532 1 -6.6531192344 6.5198078125 -4.8335439280
533 1 -5.5550154688 6.6063856250 -4.7983274400
534 1 -3.3787250000 6.4643109375 -4.0888298320
535 1 -6.1161144063 6.5968584375 -5.6428587144
536 1 -3.8518593750 3.0183984375 -3.2116038240
537 1 -6.1865524375 2.6032200000 -3.2517161680
538 1 -5.5904474688 2.7316287500 -3.9989688560
539 1 -5.0894396875 2.2687875000 -5.6441344864
540 1 -4.5193537500 2.3553921875 -4.8738635040
541 1 -3.8717603125 3.0062106250 -6.4628192677
542 1 -4.3966828125 2.8907287500 -4.0264789040
543 1 -3.9250803125 2.4607421875 -5.6177460816
544 1 -3.3230534375 2.5120600000 -4.8783319440
545 1 -2.7587321875 2.6155690625 -5.6764846968
546 1 -6.0892165625 3.1698121875 -5.6622051168
547 1 -6.6753698531 3.6438468750 -4.0552193920
548 1 -5.5401576250 3.2901450000 -4.8140511680
549 1 -5.6362975625 3.8811934375 -4.0689355600
550 1 -5.0285006250 3.3966909375 -5.7121894752
551 1 -4.4941584375 3.4689578125 -4.8102950880
552 1 -3.9010540625 4.1483712500 -3.2960120080
553 1 -3.9572093750 3.5667425000 -5.6637308624
554 1 -3.3959115625 3.6630490625 -4.8608856000
555 1 -3.2827543750 4.2015837500 -4.0079057360
556 1 -2.8125090625 3.7077825000 -5.6280597592
557 1 -6.7185037659 4.2148331250 -4.8957005760
558 1 -6.1794749063 5.4803903125 -5.6948130720
559 1 -6.6232108531 4.7424296875 -4.0336672640
560 1 -6.1210956875 4.3003090625 -5.6344943128
561 1 -5.5196372188 4.9750462500 -4.0437309680
562 1 -5.5306479063 4.4303168750 -4.9055700000
563 1 -4.4925056250 4.0349990625 -4.0130347280
564 1 -3.8243393750 5.7710165625 -5.6166788368
565 1 -4.3904612500 4.6066840625 -4.8072772720
566 1 -4.9388859375 4.4978537500 -5.6491961280
567 1 -3.3286165625 4.7599521875 -4.8040910800
568 1 -2.7556146875 5.4140896875 -6.4523693350
569 1 -3.3632046875 5.3437846875 -4.0182414320
570 1 -2.8179646875 4.8356993750 -5.6840849304
571 1 -6.6629802094 5.3313281250 -4.7955686640
572 1 -6.7154176344 5.9400737500 -4.0668502880
573 1 -5.6080304375 5.5135943750 -4.8860901920
574 1 -5.5284145938 6.0661443750 -4.0137470880
575 1 -5.0339831250 5.6466793750 -5.6609202784
576 1 -4.4541684375 5.7463990625 -4.9236768960
577 1 -4.9678571875 6.2100465625 -6.3922786606
578 1 -4.4007678125 6.2854309375 -4.0565404960
579 1 -3.9096406250 6.3233381250 -6.4444507413
580 1 -3.2583250000 5.8742568750 -4.8460685120
581 1 -2.8381209375 6.5448821875 -3.2331430000
582 1 -2.7201396875 6.0002065625 -5.6991040696
583 1 -6.0741249063 3.1494275000 -2.4221535200
584 1 -5.0010881250 2.8287415625 -3.2892769680
585 1 -5.0820893750 2.2966165625 -2.4501298400
586 1 -3.9422534375 2.4458668750 -2.4163251200
587 1 -3.3238059375 3.0916731250 -4.0845168160
588 1 -2.7712290625 3.1793796875 -3.2136502400
589 1 -6.1394607188 3.7427200000 -3.1616220560
590 1 -5.0767412500 3.9272975000 -3.2514441760
591 1 -4.9655593750 3.3841671875 -2.4261038800
592 1 -3.9335325000 3.6028087500 -2.4567871680
593 1 -2.8153846875 3.7450043750 -2.4085927760
594 1 -2.7263209375 4.2890753125 -3.2114095440
595 1 -6.0829318438 4.9141878125 -3.2213437280
596 1 -6.1565935313 4.3485362500 -2.4260261680
597 1 -4.4805596875 5.2058756250 -4.0888686880
598 1 -4.9831221875 5.0392775000 -3.1646916800
599 1 -3.9347015625 5.2315278125 -3.2289206480
600 1 -3.8411093750 4.6776475000 -2.4032954080
601 1 -2.7845321875 5.4378875000 -3.2554592960
602 1 -2.7917346875 4.8952678125 -2.4540283920
603 1 -6.1154882188 6.5575806250 -2.4356495040
604 1 -6.1386356563 6.0249450000 -3.3070341600
605 1 -4.9566368750 6.1952115625 -3.2388677840
606 1 -5.0743896875 5.6500925000 -2.4351443760
607 1 -3.8777265625 6.3537606250 -3.1582286320
608 1 -3.8710615625 5.7827743750 -2.3770935120
609 1 -2.7041356250 5.9911362500 -2.4220110480
610 1 -2.7812400000 2.6036903125 -2.4198610160
611 1 -4.9732859375 4.4725778125 -2.3909651040
612 1 -6.1534975313 5.4854428125 -2.4350537120
613 1 -3.8853456250 4.6887871875 -5.7010287368
614 1 -6.1033380313 4.8841012500 -6.4061887200
615 1 -2.2695937500 6.5668121875 -4.0411146640
616 1 -6.6693928531 3.1087925000 -4.8850151760
617 1 -2.7253265625 4.2744956250 -6.4613372998
618 1 -6.1664150000 3.7430559375 -6.4524381102
619 1 -5.0438059375 5.0406615625 -6.4467077568
620 1 1.1758081250 2.2909862500 -4.8738246480
621 1 1.7580550000 2.2614103125 -5.6619227632
622 1 -2.2307728125 3.2488381250 -4.0568254400
623 1 -1.6853312500 6.6222553125 -3.3119041120
624 1 -2.2036021875 2.6663493750 -4.8306944880
625 1 -1.6747156250 2.6481818750 -5.6911230472
626 1 -1.1313703125 2.6833209375 -4.8460296560
627 1 -1.0793940625 3.2256987500 -4.0169980400
628 1 -0.5792637500 2.5460300000 -5.6728814504
629 1 -0.0077400000 2.4764371875 -4.9239488880
630 1 -0.0061678125 3.0120290625 -4.0613456880
631 1 0.6114465625 2.4283712500 -5.6354825504
632 1 1.1559878125 3.4664718750 -4.7859194240
633 1 -2.2233821875 3.7917937500 -4.8750291840