ITEM: TIMESTEP
58000
ITEM: NUMBER OF ATOMS
2304
ITEM: BOX BOUNDS pp pp pp
-6.7187500000 6.7187500000
-6.7187500000 6.7187500000
-6.4760000000 6.4760000000
ITEM: ATOMS id type x y z
1 1 -5.6209976250 -6.5229427813 -4.0228652960
2 1 -4.4683181250 -6.3353660313 -4.0469042080
3 1 -3.3975375000 -6.1791389688 -4.0871072160
4 1 -2.7675068750 -6.6447917469 -5.6682964424
5 1 -6.1479357500 -6.0000103750 -5.6598828232
6 1 -5.6035960625 -5.9550135625 -4.8225865360
7 1 -5.0841990625 -5.3219487500 -6.4528124230
8 1 -5.6451018125 -5.3762335625 -4.0251578000
9 1 -5.0756528125 -5.9308300938 -5.7202974272
10 1 -4.5503003125 -5.7614759375 -4.8425455680
11 1 -4.5046396875 -5.2086975000 -4.0067530080
12 1 -3.9862746875 -5.7478153750 -5.6644665360
13 1 -3.4229612500 -5.6172310938 -4.8851576480
14 1 -3.3725571875 -5.0716215625 -4.0655680400
15 1 -2.8246162500 -5.5468347188 -5.6110239936
16 1 -6.1599959063 -4.3282321875 -6.4470121288
17 1 -6.7096039806 -4.3066112500 -4.0263364320
18 1 -6.2233093750 -4.8913978125 -5.6548069344
19 1 -5.6230549063 -4.8576293750 -4.9030702640
20 1 -5.5951788125 -4.3013571875 -4.0798929520
21 1 -5.0425159375 -4.7656765625 -5.6622413824
22 1 -4.4708309375 -4.6779431250 -4.8836552160
23 1 -4.5446162500 -4.1317490625 -4.0444044720
24 1 -3.9004896875 -4.6110512500 -5.7136944976
25 1 -3.3974300000 -4.4665846875 -4.8122896960
26 1 -3.4410884375 -3.9105543750 -4.0240698320
27 1 -2.8502550000 -4.4535637500 -5.6778083912
28 1 -6.7089936897 -3.1938787500 -4.0506084800
29 1 -6.2267305625 -3.7383528125 -5.6791825984
30 1 -5.6684320000 -3.7421287500 -4.8778527200
31 1 -5.6081661563 -3.1895518750 -4.0733521920
32 1 -5.0884856250 -3.6102800000 -5.6536839960
33 1 -4.5024493750 -3.5816043750 -4.9123179920
34 1 -3.9321484375 -2.9103071875 -6.4411183212
35 1 -4.4653081250 -3.0610759375 -4.0569938160
36 1 -3.9075578125 -3.4789284375 -5.6530791376
37 1 -3.3372568750 -3.3612159375 -4.8606783680
38 1 -2.8640956250 -2.7399465625 -6.4485575614
39 1 -3.4020390625 -2.8154115625 -4.0256111200
40 1 -2.7950537500 -3.3441637500 -5.7102181808
41 1 -6.2011522813 -6.5106918125 -3.2601997280
42 1 -5.0470175000 -6.4865688125 -3.2582051200
43 1 -3.9311406250 -6.3083244063 -3.2139092800
44 1 -2.8387928125 -6.0888752500 -3.2659504160
45 1 -2.7947043750 -6.6356007656 -2.3874292080
46 1 -6.2252806563 -5.4159306250 -3.2400205120
47 1 -6.1292374688 -5.9715013750 -2.4180865920
48 1 -5.0726696875 -5.3480981250 -3.2400205120
49 1 -5.0604281250 -5.9054695000 -2.4630041280
50 1 -3.9194500000 -5.1751037500 -3.2425720560
51 1 -3.9495634375 -5.7390312813 -2.4281243920
52 1 -2.8273306250 -4.9572146875 -3.2348138080
53 1 -2.8245625000 -5.5747511250 -2.4454930240
54 1 -6.1471886250 -4.3166356250 -3.2295552960
55 1 -6.1925791563 -4.8680568750 -2.3999149360
56 1 -5.0833256250 -4.1756090625 -3.1731363840
57 1 -5.0418037500 -4.7744915625 -2.4500003200
58 1 -3.9834796875 -4.0639300000 -3.2009572800
59 1 -3.8939859375 -4.6186165625 -2.4303780400
60 1 -2.8558046875 -3.9147603125 -3.2803659920
61 1 -2.7424728125 -4.4355440625 -2.3343648640
62 1 -6.1455035625 -3.2124762500 -3.2233642400
63 1 -6.2349072813 -3.7655771875 -2.3997595120
64 1 -5.0580228125 -3.0651609375 -3.2577906560
65 1 -5.0427981250 -3.5922603125 -2.3875198720
66 1 -3.9551803125 -2.8849640625 -3.1801304640
67 1 -3.8920240625 -3.4744671875 -2.4569555440
68 1 -2.8472718750 -2.7975396875 -3.1693803040
69 1 -2.7800843750 -3.3837775000 -2.4190061840
70 1 -2.2752912500 -6.0581786250 -4.0592992720
71 1 -2.2446537500 -5.4976897500 -4.8604193280
72 1 -2.2690159375 -4.9275850000 -4.0901638880
73 1 -2.3140315625 -4.3239725000 -4.8166804240
74 1 -2.2496928125 -3.7566681250 -3.9989818080
75 1 -2.2699700000 -3.2141828125 -4.8205530720
76 1 -2.3206293750 -2.6529118750 -4.0213758160
77 1 -6.1640352188 -2.6372168750 -5.6494214928
78 1 -5.6035772500 -2.5947006250 -4.8266275600
79 1 -5.0783806250 -2.4961365625 -5.6958608888
80 1 -4.5373734375 -2.4740050000 -4.8210970560
81 1 -4.0051543750 -2.3320646875 -5.6718271576
82 1 -3.4077231250 -2.2911340625 -4.9199337680
83 1 -6.1465490000 -2.6426725000 -2.4450785600
84 1 -5.0378665625 -2.5205525000 -2.3920271680
85 1 -3.9581231250 -2.2946009375 -2.4276581200
86 1 -6.7113527772 -6.0470470000 -4.8448639760
87 1 -3.8960956250 -6.3074402188 -6.4564746010
88 1 -5.0791196875 -4.1961146875 -6.4390682786
89 1 -4.0034881250 -4.0264528125 -6.4729094456
90 1 -2.2225221875 -6.6370791594 -4.8216928480
91 1 -1.7016040625 -6.4644641250 -5.7143744776
92 1 -1.1525881250 -6.4317276875 -4.8636832320
93 1 -1.1051671875 -5.8969434063 -4.0109106000
94 1 -0.6063000000 -6.3494660000 -5.7039895640
95 1 -0.0516268750 -6.2683706875 -4.8815828960
96 1 0.5767643750 -5.7734017188 -6.4486076857
97 1 -0.0014243750 -5.7225192813 -4.0396899440
98 1 0.5240356250 -6.3362865000 -5.6419559600
99 1 1.1268150000 -6.3475672813 -4.8988090560
100 1 1.6351556250 -5.8447427500 -6.4630734766
101 1 1.0623015625 -5.8060306563 -4.0757612640
102 1 1.7006365625 -6.4199241875 -5.6542849688
103 1 -1.6876559375 -5.3497778125 -5.6562601488
104 1 -1.1288306250 -5.3385306250 -4.8358364320
105 1 -0.6218606250 -4.6418096875 -6.4676543529
106 1 -1.1521850000 -4.7589981250 -4.0919901200
107 1 -0.6063806250 -5.2201462500 -5.6869797024
108 1 -0.0170118750 -5.1691240625 -4.8817642240
109 1 0.4981684375 -4.6125159375 -6.4427858912
110 1 -0.0841590625 -4.6400896875 -4.0012613600
111 1 0.5329043750 -5.1891459375 -5.6833738656
112 1 1.1008806250 -5.2268650000 -4.8689935520
113 1 1.0824578125 -4.6859518750 -4.0473186720
114 1 1.6791500000 -5.2801715625 -5.6578972816
115 1 -1.6385956250 -3.7236925000 -6.4749827564
116 1 -1.7537146875 -4.2767531250 -5.6238697872
117 1 -1.1666303125 -4.1707984375 -4.8613259680
118 1 -0.5890865625 -3.5343984375 -6.4469389500
119 1 -1.1259281250 -3.6089765625 -4.0687542320
120 1 -0.5905378125 -4.1014340625 -5.6342300920
121 1 -0.0057512500 -4.1003859375 -4.8620512800
122 1 -0.0346418750 -3.5263896875 -4.0516187360
123 1 0.5491503125 -4.0239265625 -5.6914196480
124 1 1.0702834375 -4.0990556250 -4.8115902880
125 1 1.1193840625 -3.5071337500 -4.0724585040
126 1 1.6120028125 -4.2183806250 -5.6542007808
127 1 -1.7315159375 -3.1652165625 -5.6799221576
128 1 -1.1727846875 -3.0369690625 -4.8680739600
129 1 -1.1552353125 -2.5207809375 -4.0090973200
130 1 -0.5844506250 -2.9733559375 -5.6271893848
131 1 0.5244790625 -2.9577550000 -5.6426799768
132 1 -0.0255850000 -2.9580909375 -4.8224181600
133 1 1.1214534375 -2.9471796875 -4.8640199840
134 1 1.0694637500 -2.3943475000 -4.0177751600
135 1 1.6274559375 -2.4807103125 -6.4098207198
136 1 1.6280203125 -2.5003828125 -3.1838865440
137 1 1.6374534375 -3.0980021875 -5.7139638992
138 1 -1.7124212500 -5.8479381875 -3.2857022160
139 1 -1.7118434375 -6.3808412188 -2.4389522640
140 1 -0.5576562500 -5.7651443750 -3.2115908720
141 1 -0.6077646875 -6.3676415625 -2.4692469920
142 1 0.5407384375 -5.7392032813 -3.1927327600
143 1 0.5393006250 -6.3106464063 -2.4141103280
144 1 1.6316753125 -5.8411226875 -3.2801846640
145 1 1.7138590625 -6.3786871875 -2.4336419440
146 1 -1.7188175000 -4.7757815625 -3.2537366800
147 1 -1.7204837500 -5.3246900000 -2.4115846880
148 1 -0.6621865625 -4.6050178125 -3.1852206000
149 1 -0.6101565625 -5.1920215625 -2.4464903280
150 1 0.5065265625 -4.5971300000 -3.2655489040
151 1 0.5421628125 -5.1371293750 -2.4424363520
152 1 1.6625278125 -4.7605703125 -3.2793686880
153 1 1.6291759375 -5.3039021875 -2.4149004000
154 1 -1.6684806250 -3.7349262500 -3.2368472720
155 1 -1.8090637500 -4.2451615625 -2.3041608000
156 1 -0.5682584375 -3.4791971875 -3.2327544400
157 1 -0.5977537500 -4.0291403125 -2.4127762720
158 1 0.5571725000 -3.5048493750 -3.2694992640
159 1 0.4949703125 -4.0589043750 -2.4201977680
160 1 1.6395093750 -3.6888221875 -3.2128213120
161 1 1.6005943750 -4.2398940625 -2.3932964640
162 1 -1.7146115625 -3.1432596875 -2.5054607840
163 1 -0.0020828125 -2.3571928125 -4.1072475760
164 1 -0.6403909375 -2.9364028125 -2.4210396480
165 1 0.5042959375 -2.4224990625 -3.1949346000
166 1 0.4794903125 -2.9887956250 -2.3862635280
167 1 2.2040725000 -5.9741270625 -4.0556079520
168 1 2.2149434375 -5.3890905625 -4.8041687920
169 1 2.2386740625 -4.7803503125 -4.0875993920
170 1 2.1962921875 -4.2064750000 -4.8589557520
171 1 2.2179803125 -3.6625787500 -4.0235647040
172 1 2.2201437500 -3.1461756250 -4.9267076640
173 1 2.1670925000 -2.6235643750 -4.0100816720
174 1 -1.7322146875 -2.5627596875 -3.2524932880
175 1 -0.5479812500 -2.3789750000 -3.2645516000
176 1 1.6368621875 -3.1024500000 -2.4523964400
177 1 2.2722543750 -6.5366947188 -4.8555234720
178 1 6.6638040625 -6.6007155375 -4.0455701520
179 1 6.6738553125 -5.4612714375 -4.0846333840
180 1 6.6758709375 -4.8716715625 -4.8246847600
181 1 6.6483643750 -3.7710596875 -4.8545909280
182 1 2.8234875000 -6.5644297188 -5.6855575728
183 1 3.3489071875 -6.6787720938 -4.8195169120
184 1 3.3817887500 -6.0834545625 -4.0694018320
185 1 4.4905168750 -6.2378487500 -4.0446117040
186 1 6.1253903125 -6.4898932500 -6.4321591638
187 1 5.5760921875 -6.4415290000 -4.0336802160
188 1 2.7532496875 -5.4891367813 -5.6558858360
189 1 3.3292615625 -5.5056407188 -4.8457576640
190 1 3.8875225000 -5.0934575000 -6.4142069146
191 1 3.3321506250 -4.9543256250 -4.0305976400
192 1 3.8469009375 -5.6936488125 -5.6912396152
193 1 4.4403815625 -5.7018524063 -4.9126806480
194 1 5.0010343750 -5.2035375000 -6.4467479080
195 1 4.4432034375 -5.1843487500 -4.0043698400
196 1 5.0079009375 -5.7976201250 -5.6992905784
197 1 5.5646568750 -5.9110689063 -4.9032904480
198 1 5.5575753125 -5.3717212500 -4.0628869760
199 1 6.1762646875 -5.9184944688 -5.6404250336
200 1 2.7666603125 -3.8076768750 -6.4141782907
201 1 2.7318706250 -4.3983087500 -5.6751933824
202 1 3.3412881250 -4.4271859375 -4.9274977360
203 1 3.8553262500 -3.9018065625 -6.4541955670
204 1 3.2991346875 -3.9132956250 -4.0187983680
205 1 3.9168028125 -4.4872918750 -5.6999252264
206 1 4.4504731250 -4.6627318750 -4.8675817840
207 1 4.4082928125 -4.0874859375 -4.0710208320
208 1 5.0445181250 -4.6429653125 -5.6582301480
209 1 5.5682043750 -4.7807937500 -4.8166804240
210 1 5.5557478125 -4.2125218750 -4.0326570080
211 1 6.1211575000 -4.8480215625 -5.6669766336
212 1 2.8026056250 -3.1953568750 -5.6975822096
213 1 3.3327150000 -3.3757956250 -4.8632817200
214 1 3.2910721875 -2.8057768750 -4.0737148480
215 1 3.9254028125 -3.3442443750 -5.6490148000
216 1 4.4629834375 -3.5057496875 -4.8058136960
217 1 4.4326684375 -2.9139621875 -4.0502199200
218 1 5.0017196875 -3.5906612500 -5.6506687704
219 1 5.5718190625 -3.6378806250 -4.8198536640
220 1 5.6008709375 -3.0820384375 -4.0071286160
221 1 6.0990125000 -3.7535506250 -5.6896193200
222 1 2.7942340625 -6.0522755313 -3.2964394240
223 1 2.7848143750 -6.5963711938 -2.4475912480
224 1 3.9092375000 -6.2560001250 -3.2291019760
225 1 5.0160575000 -6.4058201875 -3.1919556400
226 1 6.1239659375 -6.5047295938 -3.2028612240
227 1 2.7462218750 -4.9805556250 -3.2191548400
228 1 2.7264015625 -5.5321770938 -2.4024276240
229 1 3.8689787500 -5.0903131250 -3.2059956080
230 1 3.8710078125 -5.6689748750 -2.4538600160
231 1 5.0220103125 -5.2194475000 -3.2178984960
232 1 5.0142971875 -5.7965075000 -2.4648044560
233 1 6.1225550000 -5.3982670313 -3.2397744240
234 1 6.1718168750 -5.9517240625 -2.3979332800
235 1 2.7558162500 -3.8047071875 -3.1838476880
236 1 2.7646581250 -4.3964409375 -2.4525648160
237 1 3.8797287500 -3.9070471875 -3.2215898160
238 1 3.9052062500 -4.4963084375 -2.4627968960
239 1 4.9736353125 -4.1059221875 -3.2590470000
240 1 5.0296428125 -4.6502484375 -2.4254951360
241 1 6.1384515625 -4.3095675000 -3.2749650080
242 1 6.1483953125 -4.8412356250 -2.4200293920
243 1 2.7660959375 -2.6252306250 -3.2279492480
244 1 2.7693746875 -3.2025996875 -2.4561784240
245 1 3.8532300000 -2.8299912500 -3.2541381920
246 1 3.9207668750 -3.3649650000 -2.3901879840
247 1 4.9984812500 -3.0097581250 -3.2673362800
248 1 5.0508337500 -3.5504831250 -2.4392372080
249 1 6.1796240625 -3.1646656250 -3.2335445120
250 1 6.0978165625 -3.7516693750 -2.4668508720
251 1 6.6955837500 -2.6532343750 -4.8760912480
252 1 3.8677425000 -2.3023678125 -5.6539106560
253 1 4.4309081250 -2.3430162500 -4.8336345920
254 1 4.9826787500 -2.4727418750 -5.6740328832
255 1 5.5389643750 -2.5545628125 -4.8654447040
256 1 6.1188193750 -2.6036500000 -5.6509653712
257 1 3.9127043750 -2.2674571875 -2.4455707360
258 1 4.9732590625 -2.4532306250 -2.4369835600
259 1 6.1076393750 -2.6318150000 -2.3933612240
260 1 5.0448271875 -6.3943096250 -6.4290535332
261 1 6.1394862500 -3.1723787500 -6.4478812080
262 1 -2.7990178125 -2.1826934375 -5.6238322264
263 1 -5.6445804375 -2.0358484375 -4.0278129600
264 1 -3.8994550000 -1.7661443750 -6.4627449232
265 1 -4.4459581250 -1.9014465625 -4.0372161120
266 1 -2.8020815625 -1.6337178125 -6.4368016786
267 1 -3.2781453125 -1.7573696875 -4.0511265600
268 1 -6.6897165344 -1.5016271875 -4.8602639040
269 1 -6.1364789375 -1.5549203125 -5.6807225912
270 1 -5.5988351563 -1.4702371875 -4.8328704240
271 1 -5.5831750938 -0.9026775000 -4.0374622000
272 1 -5.0365631250 -1.4111390625 -5.6494292640
273 1 -4.4907318750 -1.3415193750 -4.8090257920
274 1 -4.4737065625 -0.7275600000 -4.0805535040
275 1 -3.9568868750 -1.1951043750 -5.6850576256
276 1 -3.4071721875 -1.1963809375 -4.8436076320
277 1 -3.3433440625 -0.6180443750 -4.0523310960
278 1 -2.8552268750 -1.0391353125 -5.6701317408
279 1 -6.6890500344 0.1500162500 -4.0464767920
280 1 -6.1380484375 -0.4256193750 -5.7003720704
281 1 -5.6128827188 -0.3443359375 -4.8556270880
282 1 -5.0112603125 0.2219068750 -6.4488190623
283 1 -5.5885810000 0.2234253125 -4.0519425360
284 1 -5.0217550000 -0.3351178125 -5.6540362904
285 1 -4.4693528125 -0.1613709375 -4.8568963840
286 1 -4.4686003125 0.3927781250 -4.0505566720
287 1 -3.8736146875 -0.1154550000 -5.6182887704
288 1 -3.3123571875 -0.0422743750 -4.8174834480
289 1 -3.3288450000 0.5396096875 -4.0531600240
290 1 -2.7798021875 0.0937534375 -5.6944400544
291 1 -6.1620652813 0.7216475000 -5.6451369712
292 1 -5.5507436875 0.7567731250 -4.9038085280
293 1 -5.5853990000 1.2853909375 -4.0383558880
294 1 -4.9889271875 0.8129821875 -5.7005365608
295 1 -4.4375462500 0.9705771875 -4.8518192000
296 1 -3.8814890625 1.4965343750 -6.4595289416
297 1 -4.4872784375 1.5094075000 -4.0210002080
298 1 -3.8689787500 0.9536459375 -5.6527164816
299 1 -3.3169931250 1.1118725000 -4.8232859440
300 1 -2.7478612500 1.1746928125 -5.6160817496
301 1 -6.2155384688 -2.0867228125 -3.2387253120
302 1 -5.0387534375 -1.9923512500 -3.2933827520
303 1 -3.8639262500 -1.7592912500 -3.2664037360
304 1 -2.7747900000 -1.6204281250 -3.1462739360
305 1 -2.7853787500 -2.2050937500 -2.4172835680
306 1 -6.1730665625 -0.9539146875 -3.2804048480
307 1 -6.1346044063 -1.5124578125 -2.4563986080
308 1 -5.0127787500 -0.8694868750 -3.2437118320
309 1 -5.0787165625 -1.4538300000 -2.4671746720
310 1 -3.9145453125 -0.7099971875 -3.2516643600
311 1 -3.9708618750 -1.2524153125 -2.3853439360
312 1 -2.7995418750 -0.5053843750 -3.2557312880
313 1 -2.8122403125 -1.0260203125 -2.3943973840
314 1 -6.1280791563 0.1584550000 -3.2125234160
315 1 -6.1466766563 -0.4334400000 -2.4246273520
316 1 -5.0267671875 0.2392681250 -3.2307986880
317 1 -5.0215534375 -0.3166412500 -2.4247827760
318 1 -3.8873343750 0.4050868750 -3.2632434480
319 1 -3.8873209375 -0.1493712500 -2.4433688960
320 1 -6.1435605000 1.2962484375 -3.1980948880
321 1 -6.1477409063 0.7214459375 -2.4257412240
322 1 -5.0234750000 1.3746293750 -3.2010868000
323 1 -4.9711628125 0.8105634375 -2.4378124880
324 1 -2.7595250000 1.7173796875 -3.2592283280
325 1 -3.8659553125 0.9624878125 -2.4477855280
326 1 -2.7261865625 0.6104521875 -3.2617151120
327 1 -2.7722771875 1.1566193750 -2.4362323440
328 1 -2.2575940625 -1.5347103125 -4.0776781600
329 1 -6.7154156188 1.8400237500 -4.8514565440
330 1 -6.1649825625 1.8589840625 -5.6565321408
331 1 -5.5733240625 1.8326734375 -4.8873076800
332 1 -5.0127384375 1.9935606250 -5.6645494288
333 1 -4.4257615625 2.0413443750 -4.8943665200
334 1 -3.8586856250 2.0858090625 -5.7079075440
335 1 -3.3376062500 1.6947778125 -4.0622782320
336 1 -6.1298784375 1.8997131250 -2.4518524560
337 1 -5.0133834375 1.9715365625 -2.4608152400
338 1 -3.8804678125 1.5185853125 -3.2643702720
339 1 -3.8590618750 2.0636775000 -2.4390429280
340 1 -2.7956584375 0.0648762500 -2.4241222240
341 1 -2.2669331250 -0.9945900000 -4.9052462000
342 1 -6.6988954219 -0.4227168750 -4.8513917840
343 1 -6.6554189281 1.2630443750 -4.0834418000
344 1 -2.7371650000 2.2241481250 -5.6515378496
345 1 -2.7703556250 -0.4812371875 -6.4712993436
346 1 -6.1475783125 0.1683450000 -6.4518355831
347 1 -6.1007916250 1.2874200000 -6.4505792391
348 1 -5.0187718750 1.4110987500 -6.4247625356
349 1 -2.2348846875 0.1075806250 -4.8326890960
350 1 1.6535784375 -1.9217640625 -2.4424752080
351 1 -1.5343743750 0.7870075000 -3.2287263680
352 1 -2.2027959375 -2.1173334375 -4.8807928240
353 1 -1.6513612500 -2.0378640625 -5.7059893528
354 1 -1.1547112500 -1.3282700000 -4.0203137520
355 1 -0.6109225000 -1.8978721875 -5.6873514248
356 1 -0.5682584375 -1.3540834375 -3.2439190640
357 1 -1.1328081250 -1.9204740625 -4.7815546000
358 1 -0.0620678125 -1.7544134375 -4.8296324240
359 1 -0.0069471875 -1.1973618750 -4.0225544480
360 1 0.4843681250 -1.8529909375 -5.6416658352
361 1 1.1024662500 -1.8804437500 -4.9402813600
362 1 1.0692487500 -1.3605603125 -4.0333564160
363 1 1.7014159375 -1.8851871875 -5.6853645880
364 1 -2.2072168750 -0.4564046875 -4.0448707440
365 1 -1.6799696875 -0.9225650000 -5.6418264400
366 1 -1.0998728125 -0.8072175000 -4.8958948560
367 1 -1.1049387500 -0.2771350000 -4.0632496320
368 1 -0.5309425000 -0.7689475000 -5.6838116432
369 1 0.0309196875 -0.6667418750 -4.8926827600
370 1 0.6048621875 -0.6920312500 -5.6906321664
371 1 -0.0442765625 -0.1476781250 -4.0449484560
372 1 0.5658531250 -1.2864390625 -6.4448694794
373 1 1.1349984375 -0.7958225000 -4.8432967840
374 1 1.0957206250 -0.2131993750 -4.0873144480
375 1 1.6944284375 -0.7926378125 -5.6748760584
376 1 -2.1656143750 0.6749521875 -3.9994221760
377 1 -1.7008918750 0.2316221875 -5.6991545824
378 1 -1.1424562500 0.2949531250 -4.8875149120
379 1 -1.0264234375 0.8295371875 -3.9904464400
380 1 -0.5441246875 0.3772578125 -5.6162242216
381 1 0.0480390625 0.4333190625 -4.8588262320
382 1 -0.0884053125 0.9758312500 -3.9986191520
383 1 0.5823140625 0.4126656250 -5.6907655720
384 1 1.1214131250 0.3942696875 -4.8016172480
385 1 1.6275500000 0.2683468750 -5.6968594880
386 1 1.0961640625 0.9553390625 -3.9974664240
387 1 -2.1669043750 1.2093212500 -4.8099712880
388 1 -2.2118931250 1.8167634375 -4.0860840080
389 1 -1.6651078125 1.3913187500 -5.6917835992
390 1 -1.1030171875 1.3813212500 -4.8658721200
391 1 -1.0952234375 1.9460725000 -4.0113509680
392 1 -0.5532890625 1.4999475000 -5.6801112568
393 1 0.0171059375 1.5380159375 -4.8526869840
394 1 0.0563568750 2.1178171875 -4.0330326160
395 1 0.5567828125 1.5242559375 -5.6890895832
396 1 1.1043475000 1.4777756250 -4.8659239280
397 1 1.6814075000 1.4387262500 -5.6661813808
398 1 -1.7203493750 -1.5128475000 -3.2273793600
399 1 -0.5591075000 -0.7220103125 -2.5016140400
400 1 0.5458850000 -1.2567556250 -3.1942740480
401 1 0.4929815625 -1.8331706250 -2.4477855280
402 1 1.6590340625 -1.3366281250 -3.2191030320
403 1 -1.6518853125 -0.8821046875 -2.4722389040
404 1 -0.5623056250 -0.1344556250 -3.1709474960
405 1 -0.5340600000 0.6096056250 -2.7161898240
406 1 0.5817765625 -0.1318487500 -3.2626606080
407 1 1.6655378125 -0.2801315625 -3.2715068240
408 1 -1.6855193750 1.3244806250 -2.3945139520
409 1 -1.6880993750 -0.3460425000 -3.2244781120
410 1 -0.5520796875 1.4937259375 -2.4502593600
411 1 -1.6925740625 0.2256962500 -2.3728064000
412 1 0.6181653125 1.5233959375 -2.4493009120
413 1 0.4500353125 0.9483112500 -3.2750038640
414 1 1.6755487500 0.8506878125 -3.2778403520
415 1 1.6776853125 0.2976406250 -2.4629911760
416 1 -1.6782900000 1.8748000000 -3.2354873120
417 1 0.6205706250 2.0901493750 -3.2203852800
418 1 1.1530987500 2.0399737500 -4.0501292560
419 1 1.6614259375 1.4047965625 -2.4749588240
420 1 2.2257875000 -2.0901090625 -4.8532827760
421 1 1.7331956250 2.0182453125 -3.2284025680
422 1 -0.7050118750 -1.8580434375 -2.2905871040
423 1 0.5415446875 -0.6565025000 -2.4418146560
424 1 0.5867350000 0.4322978125 -2.3930374240
425 1 1.6885562500 -0.8013721875 -2.3833234240
426 1 -0.5167525000 1.9128415625 -3.2570653440
427 1 2.1929731250 0.2143012500 -4.8720502240
428 1 2.1755312500 -1.5123503125 -4.0818357520
429 1 2.2249946875 1.2781212500 -4.8657814560
430 1 2.2382037500 1.8699759375 -4.1232692000
431 1 -1.6041687500 -2.0164043750 -2.3236794640
432 1 -1.6327637500 -0.3552740625 -6.4481614893
433 1 -0.5755281250 -0.1794846875 -6.4496593881
434 1 -1.6430434375 0.8139900000 -6.4592342836
435 1 -0.5173303125 0.9150131250 -6.4589225290
436 1 -0.5191846875 2.0750053125 -6.4528673394
437 1 0.6154912500 2.1129393750 -6.4426037861
438 1 1.7314890625 0.8640984375 -6.4414163467
439 1 3.3237521875 -2.2064240625 -4.7969286240
440 1 6.6780075000 -2.0893162500 -4.0758260240
441 1 6.7068040625 0.6875296875 -4.8613518720
442 1 2.2414825000 -0.9117746875 -4.8053215200
443 1 2.2564653125 -0.3367975000 -4.0301702240
444 1 6.6703884375 -0.9652693750 -4.0168685200
445 1 2.8051990625 -2.0740646875 -5.6736844744
446 1 3.3432634375 -1.6231962500 -4.0303256480
447 1 4.5092756250 -1.7989856250 -4.0115970560
448 1 6.1327943750 -2.0585712500 -6.4605539629
449 1 5.6136768750 -1.9745734375 -4.0893997200
450 1 2.8395318750 -0.4505862500 -6.4447748003
451 1 2.8196443750 -0.4475359375 -3.2521047280
452 1 2.7490706250 -1.0228087500 -5.6745146976
453 1 3.3231743750 -1.0729171875 -4.8572460880
454 1 3.9150693750 -0.6008443750 -6.4505135725
455 1 3.3990559375 -0.5208509375 -4.0225933040
456 1 3.8831015625 -1.1742896875 -5.6760728232
457 1 4.4196878125 -1.2644284375 -4.8640588400
458 1 4.4972087500 -0.6834312500 -4.1101617760
459 1 5.0153050000 -1.3307156250 -5.6439259592
460 1 5.5923650000 -1.4207200000 -4.8857663920
461 1 5.5643746875 -0.8502846875 -4.0722124160
462 1 6.1813843750 -1.4929734375 -5.6579374328
463 1 2.2883525000 0.7476625000 -4.0164799600
464 1 2.7710812500 0.1354500000 -5.6715409184
465 1 3.3162271875 0.0131553125 -4.8752364160
466 1 3.3809018750 0.5949318750 -4.1187230480
467 1 3.9216940625 -0.0433090625 -5.6300595480
468 1 4.4959993750 -0.0937668750 -4.8550831040
469 1 4.4614784375 0.4786706250 -4.0690650800
470 1 5.0475818750 -0.2421303125 -5.6539041800
471 1 5.6439381250 -0.2986350000 -4.8847690880
472 1 5.5947703125 0.2220009375 -4.0007432800
473 1 6.1977781250 -0.3574240625 -5.6940761032
474 1 2.8290775000 1.2497278125 -5.6292720664
475 1 3.3991768750 1.1983025000 -4.8412892240
476 1 3.9299715625 1.6068831250 -6.4481986615
477 1 3.3431693750 1.7670984375 -4.0584703440
478 1 3.9338550000 1.0245421875 -5.6697703800
479 1 4.5279403125 1.0331690625 -4.8823988720
480 1 4.4807209375 1.5566403125 -3.9724431600
481 1 5.0779237500 0.9064668750 -5.7142617952
482 1 5.5969203125 0.7731937500 -4.8410949440
483 1 5.6432528125 1.3316965625 -4.0558410880
484 1 6.1603009375 0.7845618750 -5.6759886352
485 1 2.7405512500 -1.5623781250 -3.2729056400
486 1 2.8086659375 -2.0886040625 -2.3829089600
487 1 3.9114546875 -1.7260871875 -3.2667016320
488 1 5.0811084375 -1.8962731250 -3.2270555600
489 1 6.1315043750 -2.0652228125 -3.1942092880
490 1 2.7430103125 0.1256540625 -2.4684698720
491 1 2.8110712500 -1.0064553125 -2.4572145840
492 1 3.9752559375 -0.5892881250 -3.2356556880
493 1 3.8568043750 -1.1567806250 -2.4559193840
494 1 5.0199543750 -0.7974350000 -3.1972012000
495 1 4.9785534375 -1.3519871875 -2.3793601120
496 1 6.1051668750 -0.9594106250 -3.2283896160
497 1 6.1978318750 -1.4983618750 -2.3955760160
498 1 2.7626693750 1.7701756250 -3.2381554240
499 1 2.8675893750 0.7020153125 -3.2277808720
500 1 3.9059453125 0.4807534375 -3.2199967200
501 1 3.8899546875 -0.0511162500 -2.3645948320
502 1 5.0023915625 0.3143165625 -3.2522731040
503 1 5.0993565625 -0.2209393750 -2.4141880400
504 1 6.1956012500 0.2197300000 -3.2535812560
505 1 6.1951443750 -0.3691415625 -2.4875093120
506 1 3.8792718750 1.6000568750 -3.2436988800
507 1 3.9989731250 1.0487700000 -2.4235652880
508 1 5.0947475000 1.4873968750 -3.2596298400
509 1 5.0704256250 0.8989821875 -2.4951250880
510 1 6.2177193750 1.3278937500 -3.2575963760
511 1 6.1286287500 0.7684637500 -2.4333829040
512 1 3.9625037500 2.1999203125 -5.7200034168
513 1 4.4893612500 2.0712965625 -4.8752623200
514 1 5.0828418750 2.0513956250 -5.6841419192
515 1 5.6022281250 1.9108931250 -4.8267441280
516 1 6.1538375000 1.8592796875 -5.6655078768
517 1 3.9395793750 2.1919518750 -2.5061601920
518 1 5.0217146875 2.0242250000 -2.4273731760
519 1 6.1994443750 1.8632437500 -2.3817691840
520 1 2.8038956250 1.2313184375 -2.3762127760
521 1 3.9399556250 -1.7507718750 -6.4717476253
522 1 5.0292396875 -1.9045103125 -6.4383091619
523 1 6.1265996875 -0.9383943750 -6.4554863634
524 1 2.7980100000 0.6939393750 -6.4649235144
525 1 5.0320750000 0.3153781250 -6.4595065346
526 1 -3.3319625000 2.2623375000 -4.8660016400
527 1 -6.1547351250 6.3317365625 -5.6957559776
528 1 -5.6387270625 6.3599821875 -4.8377274240
529 1 -5.0593262500 6.4078734375 -5.6458519216
530 1 -4.4983509375 6.5563846875 -4.8715062400
531 1 -3.9097750000 6.5783281250 -5.6229994128
532 1 -3.3274071875 6.6780075000 -4.8545909280
533 1 -6.1693309375 6.3596328125 -2.4570850640
534 1 -5.0568940625 6.4185428125 -2.4248475360
535 1 -3.9125700000 6.5691503125 -2.4165712080
536 1 -3.9028681250 2.6590931250 -3.1792885840
537 1 -5.5410418125 2.3701600000 -4.0556079520
538 1 -3.8768800000 2.6936812500 -6.4167559978
539 1 -4.4455281250 2.5847300000 -4.0416197920
540 1 -2.7595250000 2.7872868750 -6.4573825362
541 1 -6.6820060969 2.9574325000 -4.8492935600
542 1 -6.7122307028 3.5309450000 -4.0601670560
543 1 -6.1132280313 2.9425706250 -5.6714606160
544 1 -5.5874334375 2.9635331250 -4.7913204080
545 1 -5.5586301563 3.5736225000 -4.0810197760
546 1 -5.0656015625 3.1053793750 -5.6788251232
547 1 -4.4820109375 3.1191796875 -4.9014771680
548 1 -4.4056053125 3.6545700000 -4.0489506240
549 1 -3.9154859375 3.2771240625 -5.6776853472
550 1 -3.3211050000 3.3325806250 -4.9167864320
551 1 -3.3319356250 3.8689787500 -4.0363742320
552 1 -2.7415590625 3.3632718750 -5.6865095448
553 1 -6.6881732375 4.0990287500 -4.8449287360
554 1 -6.1236394063 4.0097231250 -5.6491469104
555 1 -5.5539297188 4.1420421875 -4.8523631840
556 1 -5.5998375938 4.7178256250 -4.0570974320
557 1 -5.0058181250 4.1902156250 -5.6831782904
558 1 -4.4549209375 4.2355000000 -4.8246588560
559 1 -4.4702262500 4.8055053125 -4.0524994720
560 1 -3.9267196875 4.4236921875 -5.6778848080
561 1 -3.3512721875 4.4084540625 -4.8777491040
562 1 -3.2942031250 4.9560053125 -4.0331103280
563 1 -2.8158415625 4.5480831250 -5.6919014624
564 1 -6.1333144063 5.7307846875 -6.4217562469
565 1 -6.1724457500 5.1425715625 -5.6792227496
566 1 -5.5900537500 5.2513078125 -4.9110227920
567 1 -5.5724062813 5.7876656250 -4.0512172240
568 1 -4.9895184375 5.3083903125 -5.6212055608
569 1 -4.4241221875 5.3811275000 -4.8205401200
570 1 -4.4947496875 5.9822809375 -4.0982718400
571 1 -3.8866087500 5.5092809375 -5.6724177688
572 1 -3.3373240625 5.5257284375 -4.8155147440
573 1 -3.3600871875 6.1123021875 -4.0578745520
574 1 -2.8251000000 5.6907006250 -5.7058145008
575 1 -6.1281342500 2.4332625000 -3.2906887360
576 1 -5.0075918750 2.5600990625 -3.2187274240
577 1 -3.3660265625 2.8070400000 -4.0293153920
578 1 -2.7842365625 2.8077521875 -3.2561198480
579 1 -6.1174057500 3.5048493750 -3.2836169440
580 1 -6.1399243125 2.9624178125 -2.4054583920
581 1 -5.0041115625 3.6515062500 -3.2724264160
582 1 -5.0466143750 3.1189512500 -2.4187860000
583 1 -3.8977350000 3.8442134375 -3.1972400560
584 1 -3.8805350000 3.2545759375 -2.4565022240
585 1 -2.7940325000 3.9485421875 -3.1868136960
586 1 -2.7142003125 3.3623850000 -2.4351832320
587 1 -6.1437526563 4.5815693750 -3.1988202000
588 1 -6.1314734688 4.0189278125 -2.4107039520
589 1 -5.0419381250 4.7325531250 -3.2548764560
590 1 -4.9998787500 4.1909009375 -2.4051216400
591 1 -3.8962837500 4.9637318750 -3.2910384400
592 1 -3.9207131250 4.4343346875 -2.4338362240
593 1 -2.7685953125 5.1463340625 -3.1931342720
594 1 -2.7814684375 4.5488893750 -2.4637682960
595 1 -6.1146134375 5.7731800000 -3.2054645760
596 1 -6.1628258438 5.1827900000 -2.4660737520
597 1 -5.0091103125 5.8417918750 -3.2189994160
598 1 -5.0035337500 5.2758581250 -2.4162474080
599 1 -3.9332100000 6.0303334375 -3.2704577120
600 1 -3.9041581250 5.4906565625 -2.3956407760
601 1 -2.8029415625 6.2736059375 -3.2683983440
602 1 -2.8318321875 5.7338081250 -2.4381880960
603 1 -2.2616387500 5.6946915625 -4.8899239840
604 1 -2.7604118750 2.2676990625 -2.4100434000
605 1 -2.2480668750 4.1081259375 -4.0202619440
606 1 -6.7146434866 2.3949253125 -4.0399360320
607 1 -6.6669372844 4.6829015625 -4.0623300400
608 1 -6.6778540438 5.7647546875 -3.9950184960
609 1 -3.8683337500 3.8497631250 -6.4637935042
610 1 -2.7618765625 3.9552878125 -6.4252071778
611 1 -6.1355853438 4.5656728125 -6.4521203976
612 1 -5.0621346875 4.7616050000 -6.4669345196
613 1 -5.0399493750 5.8481746875 -6.4692148746
614 1 -2.2094878125 6.2297996875 -4.0277222960
615 1 1.1513115625 2.5930343750 -4.8789147840
616 1 -2.2125784375 2.4039150000 -4.8261483360
617 1 -2.2393190625 2.9852615625 -4.0628999280
618 1 -1.6343359375 2.4739646875 -5.6232519768
619 1 -1.0714928125 2.4780900000 -4.8130668160
620 1 -1.0956265625 3.0791762500 -4.0540796160
621 1 -0.5567693750 2.6614715625 -5.6921669784
622 1 0.0080893750 2.6105300000 -4.8985629680
623 1 0.0413471875 3.1703765625 -4.0180342000
624 1 0.5908334375 2.6825281250 -5.6747089776
625 1 1.7399412500 2.5245837500 -5.6339425576
626 1 1.1704734375 3.7646231250 -4.8514435920
627 1 -2.2058462500 3.5585725000 -4.8481537840
628 1 -1.6581471875 4.0765746875 -6.4654438739
629 1 -1.6243115625 3.5267525000 -5.6447587728
630 1 -1.0857096875 3.6525543750 -4.8202163200
631 1 -1.1086878125 4.2438043750 -4.0633791520
632 1 -0.5238340625 3.7816350000 -5.6537707744
633 1 0.0128059375 4.3024725000 -4.0939199680
634 1 0.0330025000 3.7081453125 -4.8468715360