ITEM: TIMESTEP
79000
ITEM: NUMBER OF ATOMS
2304
ITEM: BOX BOUNDS pp pp pp
-6.7187500000 6.7187500000
-6.7187500000 6.7187500000
-6.4760000000 6.4760000000
ITEM: ATOMS id type x y z
1 1 -5.6463998750 -6.4435580625 -4.0497277440
2 1 -3.9546831250 -5.6712726875 -5.7380015160
3 1 -4.4230471875 -6.2786060313 -3.9928555120
4 1 -3.3495925000 -6.6675294750 -4.8972936720
5 1 -2.7972843750 -6.0111890313 -6.4403437916
6 1 -3.3207825000 -6.1192198125 -4.0916274640
7 1 -2.7382534375 -6.5838590000 -5.6298380688
8 1 -6.1383561563 -5.4490218125 -6.4290559941
9 1 -6.1212730625 -6.0202203750 -5.6080515096
10 1 -5.5282466250 -5.9121990000 -4.8885640240
11 1 -5.5945969688 -5.3371465625 -4.0818357520
12 1 -4.9904456250 -5.8558286875 -5.7118294096
13 1 -4.4466568750 -5.7155989688 -4.8077953520
14 1 -4.5110762500 -5.1455815625 -4.0297039520
15 1 -3.4229343750 -5.5184023125 -4.8518062480
16 1 -2.8280428125 -5.4916697500 -5.5895223784
17 1 -6.7093917891 -4.8977671875 -4.8886676400
18 1 -6.7185764654 -4.3620812500 -4.0615658720
19 1 -6.1404094063 -4.8565946875 -5.6690360016
20 1 -5.5486447500 -4.7893668750 -4.9226018800
21 1 -5.0321556250 -4.1658668750 -6.4201309004
22 1 -5.5560259688 -4.2715259375 -4.0282015200
23 1 -4.9482384375 -4.7280112500 -5.6591069984
24 1 -4.3881768750 -4.5970225000 -4.8566243920
25 1 -4.4574337500 -4.0401859375 -4.0538076240
26 1 -3.8512412500 -4.5311250000 -5.7030000312
27 1 -3.3258350000 -4.4599868750 -4.7958795120
28 1 -3.8910834375 -3.9950762500 -3.1957635280
29 1 -2.8058171875 -4.3338759375 -5.6803405072
30 1 -6.6661978188 -3.7825084375 -4.8351370240
31 1 -6.7079250053 -3.2197459375 -4.0349106560
32 1 -6.1483079688 -3.6883250000 -5.6952314216
33 1 -5.5903238438 -3.7255871875 -4.8401235440
34 1 -4.9995696875 -2.9566396875 -6.4698063795
35 1 -5.5581813438 -3.1261806250 -4.0734428560
36 1 -5.0676978125 -3.5416546875 -5.7096858536
37 1 -4.5034571875 -3.5021484375 -4.9232494800
38 1 -3.8820937500 -2.8407009375 -6.3993674197
39 1 -4.4147293750 -2.9859468750 -4.0273466880
40 1 -3.8905056250 -3.4367615625 -5.6443753936
41 1 -3.3199896875 -3.2970653125 -4.8966978800
42 1 -2.8189321875 -2.7167131250 -6.4619992766
43 1 -3.3190221875 -2.7635159375 -4.0192646400
44 1 -2.7157725000 -3.2765328125 -5.6516803216
45 1 -6.1956912813 -6.5421315313 -3.2254883680
46 1 -5.0734221875 -6.3943217188 -3.3169942480
47 1 -3.8822953125 -6.1902195313 -3.2313426720
48 1 -2.7855668750 -5.9797493125 -3.1784726080
49 1 -2.7907000000 -6.5839248438 -2.3997465600
50 1 -6.1229903750 -5.4066305313 -3.1917872640
51 1 -6.1408662813 -5.9873724063 -2.4227881680
52 1 -5.0351790625 -5.2814212500 -3.1979135600
53 1 -4.9893437500 -5.8657522813 -2.4321913200
54 1 -3.8738700000 -5.0688131250 -3.3170590080
55 1 -3.9329950000 -5.6203727813 -2.4296915840
56 1 -2.7492318750 -4.4492906250 -2.5646125680
57 1 -6.1388358750 -4.2854068750 -3.2690459440
58 1 -6.1302345313 -4.8200043750 -2.4184233440
59 1 -4.9952965625 -4.1058818750 -3.2152303840
60 1 -4.9810931250 -4.6879137500 -2.4627580400
61 1 -3.8451137500 -4.5596259375 -2.3979462320
62 1 -3.3860618750 -3.8342562500 -4.0851255600
63 1 -6.1184686563 -3.1826315625 -3.2656525200
64 1 -6.1434825625 -3.7392800000 -2.4305075600
65 1 -5.0124159375 -2.9722003125 -3.2667534400
66 1 -5.0498528125 -3.5367768750 -2.4347299120
67 1 -3.8762618750 -2.8195503125 -3.1976674720
68 1 -3.9304687500 -3.4029662500 -2.4520208320
69 1 -2.7622662500 -2.7559640625 -3.1794310560
70 1 -2.8100096875 -3.8885034375 -3.2641371360
71 1 -3.2437721875 -4.9966000000 -3.9029168240
72 1 -6.7159168375 -2.6646965625 -4.8412244640
73 1 -6.1414293125 -2.6295306250 -5.6448869976
74 1 -5.5905160000 -2.5535281250 -4.8249438000
75 1 -5.0349237500 -2.4105934375 -5.6420777088
76 1 -4.4529321875 -2.4299971875 -4.8317306480
77 1 -6.1749316875 -2.6261309375 -2.4691174720
78 1 -5.0330290625 -2.4537681250 -2.3984643120
79 1 -2.8219556250 -5.3655668750 -2.5756606240
80 1 -2.7554400000 -3.3204600000 -2.4157034240
81 1 -3.8403434375 -6.2418571563 -6.4634938726
82 1 -2.3245531250 -4.8316681250 -3.9040306960
83 1 -2.2798196875 -5.9169437813 -4.1093458000
84 1 -2.2663015625 -2.5342856250 -4.0689226080
85 1 -6.6440044438 -5.4602757188 -4.0779242480
86 1 -2.7219537500 -4.9289018750 -6.4251441015
87 1 -6.1658640625 -4.3019484375 -6.4407494482
88 1 -2.2331109375 -4.2900025000 -4.8218353200
89 1 -1.7137784375 -4.7445796875 -3.2484522640
90 1 -1.6224303125 -5.3028675000 -5.6290946240
91 1 -2.1857840625 -6.5158491250 -4.8321710160
92 1 -1.6515090625 -6.3575876250 -5.6927407520
93 1 -1.1008806250 -6.3868397188 -4.8393982320
94 1 -1.1561625000 -5.8171757188 -4.0534190640
95 1 -0.5660546875 -6.2744336875 -5.6897358880
96 1 -0.0318871875 -6.2334385625 -4.8408747600
97 1 0.0530512500 -5.6993234688 -3.9912624160
98 1 0.5305259375 -6.4069838750 -5.6504952136
99 1 1.1166293750 -6.3750536875 -4.8798084720
100 1 1.1352671875 -5.8486665000 -3.9986580080
101 1 1.6678221875 -6.5274980938 -5.7117439264
102 1 -2.2169456250 -5.3286675000 -4.8828392400
103 1 -1.0986768750 -5.2161150000 -4.7692113440
104 1 -0.5830128125 -5.1735718750 -5.6802550240
105 1 -0.5337106250 -4.0840190625 -5.6385392224
106 1 -1.1470787500 -4.6158753125 -4.0753208960
107 1 -0.0189200000 -5.1620559375 -4.8403955360
108 1 -0.0146200000 -4.6128384375 -3.9938657680
109 1 0.5094962500 -5.2419284375 -5.7074749472
110 1 1.0786550000 -5.3272565625 -4.9120330480
111 1 1.1284006250 -4.8049678125 -4.0306364960
112 1 1.6851968750 -5.3197181250 -5.6734448624
113 1 -1.5965362500 -3.6013843750 -6.4502893734
114 1 -2.2360403125 -3.6891581250 -4.0599080160
115 1 -1.6964709375 -4.1698040625 -5.6647139192
116 1 -1.1321631250 -4.0624787500 -4.8873465360
117 1 -0.5095903125 -3.5095793750 -6.4196207211
118 1 -1.0651234375 -3.5506712500 -3.9935678720
119 1 0.0391165625 -4.0969190625 -4.8776454880
120 1 1.1123831250 -3.6409981250 -4.1306388880
121 1 0.0083850000 -3.5263493750 -4.0782350960
122 1 0.6131128125 -4.0554375000 -5.7056344680
123 1 1.1245709375 -4.2604668750 -4.8412374160
124 1 1.1916643750 -3.0395490625 -4.8450194000
125 1 1.6998168750 -4.1967596875 -5.6367091048
126 1 -2.1849509375 -3.1370650000 -4.8163048160
127 1 -1.6650943750 -3.0068287500 -5.6986196648
128 1 -1.0974271875 -3.0052565625 -4.8593313600
129 1 -1.1399165625 -2.4445768750 -4.0588977600
130 1 -0.5471884375 -2.9024328125 -5.6843219520
131 1 0.0182750000 -2.9523128125 -4.8779822400
132 1 0.6030212500 -2.9911875000 -5.6247712464
133 1 1.1060406250 -2.4841503125 -4.0563721200
134 1 1.6753606250 -2.6034618750 -3.2589692880
135 1 1.7167750000 -3.1865015625 -5.6855588680
136 1 -1.7230100000 -5.7985795625 -3.2552132080
137 1 -1.6249834375 -6.3403835938 -2.4149522080
138 1 -0.5842490625 -5.7476662188 -3.2894453440
139 1 -0.5573606250 -6.2900803125 -2.4312328720
140 1 0.5807687500 -5.7970826250 -3.1585524320
141 1 0.5200581250 -6.3954531563 -2.4438610720
142 1 1.7112118750 -5.9180926875 -3.1991310480
143 1 1.6746081250 -6.5114134063 -2.4709307520
144 1 -1.6779137500 -5.2811793750 -2.3611625520
145 1 -0.6055206250 -4.6500871875 -3.2210069760
146 1 -0.5779065625 -5.2201462500 -2.4266349120
147 1 0.5797340625 -4.5704431250 -3.2349562800
148 1 0.5370968750 -5.1540740625 -2.4963684800
149 1 1.7013353125 -4.7756337500 -3.2393858640
150 1 1.6701200000 -5.3337200000 -2.4195760720
151 1 -1.6558359375 -3.5943431250 -3.2702893360
152 1 -1.6747693750 -4.1661221875 -2.4361934880
153 1 -0.4739540625 -3.4696565625 -3.1865287520
154 1 -0.5546865625 -4.0719387500 -2.4602842080
155 1 0.6051981250 -3.4855934375 -3.2421705440
156 1 0.5791562500 -4.0318143750 -2.3885819360
157 1 1.6556343750 -3.7142056250 -3.2578942720
158 1 1.7119240625 -4.2644175000 -2.3703455200
159 1 -1.6365665625 -3.0715168750 -2.4494174800
160 1 0.0031443750 -2.3989028125 -4.0601152480
161 1 -0.5574143750 -2.8983612500 -2.4295879680
162 1 0.5470271875 -2.4396721875 -3.2409789600
163 1 0.6034512500 -2.9595959375 -2.3484825440
164 1 -1.6965918750 -2.4796353125 -3.2477140000
165 1 -0.5803656250 -2.3574346875 -3.2777367360
166 1 1.7307500000 -3.1808712500 -2.4403899360
167 1 2.2244840625 -6.6288632031 -4.9000783520
168 1 2.2394265625 -6.0851194688 -4.0530823120
169 1 2.2105359375 -5.5383771563 -4.8717652800
170 1 2.2302487500 -4.9425140625 -4.1124154240
171 1 2.2174831250 -3.7941990625 -4.0896199040
172 1 0.5964906250 -5.8380414688 -6.4477199556
173 1 1.7058637500 -5.9148018438 -6.4219930094
174 1 -1.6706978125 -4.7311959375 -6.4496517464
175 1 0.6058431250 -4.6567387500 -6.4229274962
176 1 1.7228621875 -4.7690628125 -6.4535936876
177 1 1.6667337500 -2.5846090625 -6.4670851773
178 1 6.6906790625 -6.0144570313 -4.8898203680
179 1 6.6910687500 -6.5514370000 -4.0593640320
180 1 2.8137318750 -6.6078644219 -5.6996907952
181 1 3.3365850000 -6.2360037813 -4.1184122000
182 1 4.4385406250 -6.3564615625 -4.0754374640
183 1 5.5678012500 -6.5363641563 -3.9969094880
184 1 2.8410368750 -5.5209030313 -5.5884162776
185 1 3.4168740625 -5.6388372500 -4.8440998080
186 1 3.3066731250 -5.0699015625 -4.0644930240
187 1 3.9743825000 -5.7460228125 -5.6541684008
188 1 4.5426006250 -5.7770661250 -4.8399422160
189 1 4.4692721875 -5.2394021875 -3.9869105440
190 1 5.0573106250 -5.8996739063 -5.7293003624
191 1 5.5785378125 -5.9917476563 -4.8410431360
192 1 6.2365453125 -5.4266443438 -6.4528525742
193 1 5.6841968750 -5.4287983750 -4.0287843600
194 1 6.1447537500 -6.0088388125 -5.6880547184
195 1 2.2878553125 -4.3732746875 -4.8721020320
196 1 2.8601181250 -4.4383121875 -5.6654664304
197 1 3.4205828125 -4.4873321875 -4.8371186800
198 1 3.3616325000 -3.9589159375 -3.9808490080
199 1 3.9393643750 -4.6210621875 -5.7327339376
200 1 4.4529321875 -4.6918106250 -4.8265757520
201 1 4.5665596875 -4.1196687500 -4.0370606880
202 1 5.0044071875 -4.7571034375 -5.6867918984
203 1 5.5510178125 -4.8859421875 -4.8463016480
204 1 5.6430243750 -4.2879868750 -4.1061466560
205 1 6.1191284375 -4.8848000000 -5.6299339136
206 1 2.2966837500 -3.2060396875 -4.8500965840
207 1 2.2617193750 -2.6783356250 -3.9816390800
208 1 2.8177093750 -3.3746131250 -5.7206613784
209 1 3.3385334375 -3.4010984375 -4.8123156000
210 1 3.4507096875 -2.8319934375 -4.0344184800
211 1 3.8486746875 -3.4763618750 -5.7173560280
212 1 4.4147293750 -3.5678981250 -4.8789018320
213 1 5.0269956250 -3.1410828125 -6.4416849712
214 1 4.5240165625 -3.0021659375 -4.1021703920
215 1 5.0004296875 -3.6798862500 -5.6072057440
216 1 5.6281221875 -3.7117600000 -4.9070335760
217 1 5.5786587500 -3.1892562500 -4.0525642320
218 1 6.1997803125 -3.7936615625 -5.6525338584
219 1 2.8087196875 -6.0735968125 -3.2434657440
220 1 2.7974456250 -6.6273741938 -2.4248086800
221 1 3.8708062500 -6.2942042813 -3.2496438480
222 1 4.9747371875 -6.4963042813 -3.2390879680
223 1 6.1476965625 -6.5917559500 -3.2219265680
224 1 2.7520268750 -5.0154931250 -3.2322363600
225 1 2.8321950000 -5.5508874688 -2.3603983840
226 1 3.8663987500 -5.2014681250 -3.2588786240
227 1 3.9802009375 -5.7636272813 -2.4276322160
228 1 5.0839303125 -5.3537956250 -3.2908053040
229 1 5.0593396875 -5.9092091563 -2.4798546800
230 1 6.2367737500 -5.4514244375 -3.2338294560
231 1 6.1269625000 -6.0182947813 -2.4366856640
232 1 2.7587321875 -3.8991862500 -3.2588009120
233 1 2.8762968750 -4.4590059375 -2.4415944720
234 1 3.9766265625 -4.0569559375 -3.2913104320
235 1 3.9440271875 -4.6325109375 -2.4875740720
236 1 5.1228318750 -4.2409153125 -3.2204629920
237 1 4.9967209375 -4.8099800000 -2.4558546240
238 1 6.1831715625 -4.3554834375 -3.2120571440
239 1 6.1540928125 -4.9113390625 -2.3989823920
240 1 2.8772240625 -2.7428893750 -3.2733460080
241 1 2.8041509375 -3.3121959375 -2.4889081280
242 1 3.9994165625 -2.9511437500 -3.1991051440
243 1 3.8551650000 -3.5331218750 -2.4308313600
244 1 5.0424756250 -3.0991175000 -3.1978747040
245 1 5.0246440625 -3.6737184375 -2.4248086800
246 1 6.1533671875 -3.2344465625 -3.2667534400
247 1 6.1938140625 -3.7619759375 -2.4382528560
248 1 3.3312771875 -2.2829103125 -4.8637609440
249 1 3.9024918750 -2.3843231250 -5.6022813936
250 1 4.5380721875 -2.4320396875 -4.9149602000
251 1 5.0951103125 -2.5423615625 -5.6886582816
252 1 5.6649543750 -2.6153943750 -4.8574403680
253 1 6.1935318750 -2.6569968750 -5.7212234952
254 1 3.9039834375 -2.3950596875 -2.3940606320
255 1 5.1004181250 -2.5168034375 -2.4236041440
256 1 6.1935184375 -2.6516621875 -2.4664623120
257 1 5.0286618750 -6.5106945000 -6.4537147888
258 1 6.1714003125 -6.6013128344 -6.4350242757
259 1 6.1247453125 -3.2448337500 -6.4716308371
260 1 2.7943684375 -5.0123353125 -6.4706703297
261 1 -3.8928168750 -2.2355028125 -2.4261556880
262 1 -6.6997710094 -2.0972040625 -4.0279165760
263 1 -5.5687983125 -1.9545515625 -4.0819652720
264 1 -3.9228631250 -1.6568706250 -6.4747862189
265 1 -4.4533756250 -1.8437459375 -4.0769917040
266 1 -3.9429790625 -2.2288781250 -5.6972597048
267 1 -3.3661206250 -2.2297650000 -4.8993918960
268 1 -3.3024000000 -1.7029881250 -3.9912753680
269 1 -2.7807025000 -2.1382690625 -5.6756169128
270 1 -6.1702218438 -1.5403675000 -5.6572328440
271 1 -5.6121920313 -1.3718478125 -4.8518062480
272 1 -5.0312956250 -0.8110337500 -6.4647005586
273 1 -5.6178398125 -0.8341865625 -4.0281756160
274 1 -5.0252487500 -1.3503612500 -5.6226341664
275 1 -4.4656306250 -1.2562046875 -4.8270290720
276 1 -4.4587506250 -0.6837806250 -4.0591179440
277 1 -3.9090090625 -1.1069409375 -5.6399794848
278 1 -3.3389500000 -1.1712259375 -4.8273269680
279 1 -3.3485040625 -0.5687556250 -4.0797245760
280 1 -2.8376506250 -0.9340406250 -5.7141750168
281 1 -6.1398033750 -0.3998059375 -5.6796670032
282 1 -5.5921083438 -0.2663715625 -4.8369503040
283 1 -5.6564054375 0.3096671875 -4.0570197200
284 1 -5.0460365625 -0.2381259375 -5.6818753192
285 1 -4.5123662500 -0.1016278125 -4.8307592480
286 1 -4.5131590625 0.4576946875 -4.0411405680
287 1 -3.9206190625 -0.0557656250 -5.6049533912
288 1 -3.3564590625 0.0230721875 -4.8224181600
289 1 -3.3524681250 0.6022956250 -4.0716813840
290 1 -2.7976740625 0.1791084375 -5.6293109224
291 1 -6.1488293438 1.2967993750 -6.4511458891
292 1 -6.1710495938 0.7220103125 -5.6760961368
293 1 -5.6127241563 0.8575409375 -4.8961927520
294 1 -5.0414678125 1.4549184375 -6.4639288137
295 1 -5.5913773438 1.3890209375 -4.0343925760
296 1 -5.0251009375 0.8800487500 -5.6602169848
297 1 -4.4771600000 1.0402371875 -4.8363674640
298 1 -3.9244621875 1.5908925000 -6.4723355554
299 1 -4.5401012500 1.6191246875 -4.0817062320
300 1 -3.9217209375 1.0306159375 -5.6627620528
301 1 -3.3870428125 1.2063381250 -4.8182476160
302 1 -2.8091765625 1.2314259375 -5.6120925336
303 1 -6.1116961563 -2.0603718750 -3.2622720480
304 1 -4.9972718750 -1.9069962500 -3.2433621280
305 1 -3.9083371875 -1.6785453125 -3.2558478560
306 1 -2.7498096875 -1.5278975000 -3.2090522800
307 1 -2.7909553125 -2.1167018750 -2.4691951840
308 1 -6.1990735000 -0.9604721875 -3.2626865120
309 1 -6.1335656875 -1.5134387500 -2.4367633760
310 1 -5.0312015625 -0.7935515625 -3.2757162240
311 1 -5.0563028125 -1.3347871875 -2.4528627120
312 1 -3.8952625000 -0.5828381250 -3.2414063760
313 1 -3.9160771875 -1.1465681250 -2.4172706160
314 1 -2.8148068750 -0.4059468750 -3.2445019040
315 1 -2.7817371875 -0.9685884375 -2.4169727200
316 1 -6.1729133750 0.1310559375 -3.1822416400
317 1 -6.1341152813 -0.4411800000 -2.4008474800
318 1 -5.0881228125 0.3169368750 -3.2590210960
319 1 -5.0059256250 -0.2370240625 -2.4485237920
320 1 -3.9298371875 0.5216168750 -3.2933309440
321 1 -3.9499800000 -0.0180600000 -2.4469566000
322 1 -6.1454095000 1.3325968750 -3.2031073120
323 1 -6.2017798125 0.7391565625 -2.4768109600
324 1 -5.0343056250 1.4312550000 -3.1800268480
325 1 -5.0110990625 0.8595834375 -2.4099268320
326 1 -2.8262556250 1.8237912500 -3.2944836720
327 1 -3.8844050000 1.0515918750 -2.4023887680
328 1 -2.8082493750 0.7034128125 -3.2403961200
329 1 -2.8272365625 1.2845846875 -2.4591703360
330 1 -2.2774815625 -0.9184396875 -4.8830464720
331 1 -2.2493165625 0.7306371875 -4.0512172240
332 1 -6.1986824688 1.8956818750 -5.7172161464
333 1 -5.6520436250 1.9421890625 -4.8832666560
334 1 -5.0716484375 2.0141200000 -5.6701705968
335 1 -4.5053115625 2.1829890625 -4.9106212800
336 1 -3.4146568750 1.7682943750 -4.0441195280
337 1 -6.1916761563 1.9279318750 -2.4436538400
338 1 -5.1018021875 2.0439781250 -2.4609836160
339 1 -3.9741540625 1.5908656250 -3.2560809920
340 1 -3.9124759375 2.1373553125 -2.4153278160
341 1 -2.8317112500 0.1357053125 -2.4240315600
342 1 -2.2436862500 1.3122659375 -4.8330647040
343 1 -6.7055040247 -0.4109187500 -4.8752105120
344 1 -6.7032940531 1.2118743750 -3.9982046880
345 1 -3.9167490625 2.1437918750 -5.6669610912
346 1 -2.7641878125 -1.5543290625 -6.4046812367
347 1 -6.1517506563 -0.9788412500 -6.4531910099
348 1 -6.1808656875 0.1610887500 -6.4743164861
349 1 -5.0267671875 0.3343653125 -6.4745594527
350 1 -2.8072550000 1.7591300000 -6.4756378517
351 1 -2.2273328125 -1.9977531250 -4.8960502800
352 1 -2.2172815625 -0.3838287500 -4.0056391360
353 1 -2.2378678125 1.8777831250 -4.0447282720
354 1 1.6676071875 -2.0363993750 -2.4999302800
355 1 -1.6915259375 0.9077031250 -3.2457841520
356 1 -2.1749265625 -1.4495568750 -4.0299888960
357 1 -1.6100543750 -1.9386012500 -5.6284159392
358 1 -1.1194243750 -1.2435465625 -4.0958239120
359 1 -0.5447831250 -1.7871471875 -5.6706757248
360 1 -0.5958859375 -1.2834425000 -3.2069540560
361 1 -1.0624090625 -1.8547781250 -4.8042594560
362 1 0.0389150000 -1.8197331250 -4.8467808720
363 1 -0.0165281250 -1.2744528125 -3.9989429520
364 1 0.5728809375 -1.8916237500 -5.6799700800
365 1 1.1331440625 -1.9062168750 -4.8571683760
366 1 1.1831181250 -1.4110046875 -3.9651641360
367 1 1.6898731250 -2.0361978125 -5.6867193672
368 1 -1.6588190625 -0.2813140625 -6.4139877668
369 1 -1.6886100000 -0.8452321875 -5.6485757272
370 1 -1.1202171875 -0.6745759375 -4.8795753360
371 1 -0.5739693750 -0.1689496875 -6.4631157908
372 1 -0.5283893750 -0.1654962500 -3.1981078400
373 1 -0.5216034375 -0.7159903125 -5.6241068088
374 1 0.0390628125 -0.7257056250 -4.8246200000
375 1 0.5715103125 -0.7222521875 -5.7051461776
376 1 0.0029831250 -0.1361353125 -4.0491708080
377 1 0.5498759375 -1.3112715625 -6.4480249752
378 1 1.0868653125 -0.8388225000 -4.7803371120
379 1 1.1616987500 -0.2349412500 -4.0544681760
380 1 1.6209925000 -0.9349006250 -5.6537630032
381 1 -2.2130756250 0.1609006250 -4.8417943520
382 1 -1.7129453125 0.9248090625 -6.4752599823
383 1 -1.7057025000 0.3524925000 -5.7319879024
384 1 -1.0909368750 -0.1554584375 -4.0020643840
385 1 -0.5245059375 0.9912440625 -6.4604822088
386 1 -1.1637143750 0.3878196875 -4.8814015680
387 1 -0.5767240625 0.4217090625 -5.6853956728
388 1 -0.0621350000 0.4231334375 -4.8226512960
389 1 0.0312018750 1.0197584375 -4.0763570560
390 1 0.5162418750 0.3542662500 -5.6039936480
391 1 1.1129475000 0.3139403125 -4.8639163680
392 1 1.6623396875 0.1581862500 -5.6415907136
393 1 1.0975346875 0.8906643750 -4.0762663920
394 1 -1.6960006250 1.4874371875 -5.6679920704
395 1 -1.0957071875 0.9203478125 -3.9941507120
396 1 -1.1427787500 1.4502690625 -4.8337641120
397 1 -0.6117825000 1.5622303125 -5.6735860392
398 1 -0.0321425000 1.5763665625 -4.8746147200
399 1 0.5073328125 2.0058828125 -6.4230581819
400 1 -0.0160175000 2.1309725000 -4.0403893520
401 1 0.5423643750 1.4490865625 -5.6317964112
402 1 1.1448078125 1.4416018750 -4.8967108320
403 1 1.7019534375 1.3388318750 -5.7143939056
404 1 1.6221615625 0.7359315625 -6.4310882924
405 1 -1.6291893750 -1.3965190625 -3.1760505840
406 1 -0.4788587500 -0.7071350000 -2.4082042160
407 1 0.5665787500 -1.2820450000 -3.2705224720
408 1 0.5801371875 -1.8756331250 -2.4817845280
409 1 1.7774050000 -1.4343321875 -3.2165126320
410 1 -1.6709934375 -0.8013318750 -2.4215965840
411 1 -0.6097668750 0.4313303125 -2.4315437200
412 1 -0.5235384375 0.9883415625 -3.2332725200
413 1 0.5768584375 -0.1804118750 -3.2610804640
414 1 1.6801981250 -0.4277828125 -3.1852853600
415 1 -1.7209943750 1.4592721875 -2.4570332560
416 1 -1.6608212500 -0.2552453125 -3.2171990880
417 1 -0.5783903125 2.0923800000 -3.2159297920
418 1 -1.7089409375 0.3225940625 -2.4620197760
419 1 -0.5773153125 1.5303968750 -2.3942808160
420 1 0.5499968750 0.8699975000 -3.2056200000
421 1 1.6321321875 0.7445315625 -3.2041693760
422 1 1.6891071875 0.1761387500 -2.4529922320
423 1 -1.6646375000 2.0363993750 -3.2381813280
424 1 0.5264543750 1.9970409375 -3.2142719360
425 1 1.0967150000 1.9664168750 -4.0030357840
426 1 1.6865137500 1.3163240625 -2.4407655440
427 1 2.2210843750 -2.1324640625 -4.8304743040
428 1 2.2058462500 -0.9727003125 -4.8611834960
429 1 2.2326406250 -0.3970915625 -4.0822761200
430 1 2.2339440625 1.1866253125 -4.8627377360
431 1 1.6660350000 1.9000759375 -3.2220690400
432 1 -1.6301837500 -1.9680293750 -2.3816914720
433 1 -0.4511506250 -1.8386262500 -2.3897605680
434 1 0.5887103125 -0.7305565625 -2.3952263120
435 1 0.5188621875 0.3720440625 -2.3528344160
436 1 0.5586775000 1.4604546875 -2.3892424880
437 1 1.4584256250 -0.9272815625 -2.2134968000
438 1 -1.1132968750 2.0471493750 -4.0694536400
439 1 2.1898018750 0.6459943750 -3.9966374960
440 1 2.2198078125 1.7418493750 -4.0388739680
441 1 2.7660153125 -2.2362418750 -5.6687886184
442 1 6.7184678125 -1.5483225000 -4.8408618080
443 1 6.7154712500 0.1443187500 -4.0484584480
444 1 6.7187096875 1.7480306250 -4.8410431360
445 1 6.6705900000 -0.9631731250 -4.0645836880
446 1 6.6845515625 0.6888331250 -4.8925143840
447 1 2.2825743750 0.1398575000 -4.9292721600
448 1 2.3054315625 -1.5557131250 -4.0772248400
449 1 3.3765078125 -1.6944553125 -4.0892961040
450 1 4.9928509375 -1.9676262500 -6.4635593579
451 1 4.4109265625 -1.9170475000 -4.0278000080
452 1 5.5606525000 -2.0741184375 -4.0242382080
453 1 2.7608821875 -0.5971221875 -6.4394437571
454 1 2.7321125000 -0.5401203125 -3.1673856960
455 1 2.7688103125 -1.1398493750 -5.6211420960
456 1 3.3937884375 -1.1481268750 -4.9215916240
457 1 3.8667212500 -0.6737159375 -6.4712673262
458 1 3.2717356250 -0.6227206250 -4.0079704960
459 1 3.9664678125 -1.2349734375 -5.6884614112
460 1 4.5216918750 -1.3598212500 -4.8615591040
461 1 4.4348856250 -0.8230603125 -4.0193682560
462 1 5.0735834375 -1.3792518750 -5.7109305408
463 1 5.5932653125 -1.5137343750 -4.8239335440
464 1 5.5848131250 -0.9323878125 -4.0622911840
465 1 6.1471053125 -1.5523671875 -5.6584399704
466 1 2.7584365625 0.6034781250 -6.4639845332
467 1 2.8422462500 0.0212984375 -5.7161981192
468 1 3.3776096875 -0.0918318750 -4.8619476640
469 1 3.3412209375 0.4678534375 -4.0355453040
470 1 3.9365021875 -0.0713665625 -5.7125961680
471 1 4.4419134375 -0.2528265625 -4.8139605040
472 1 4.4800221875 0.3378590625 -4.0799318080
473 1 4.9998653125 -0.2743400000 -5.6472727560
474 1 5.5651406250 -0.3545753125 -4.8653669920
475 1 6.1321359375 0.1047318750 -6.4331442929
476 1 5.6019593750 0.1805462500 -4.0520720560
477 1 6.1495643750 -0.4580709375 -5.6278020144
478 1 2.7909821875 1.2073862500 -5.7136038336
479 1 3.3084737500 1.0241390625 -4.8339454400
480 1 3.3444190625 1.6161818750 -4.0820688880
481 1 3.8662778125 1.0071137500 -5.6419922256
482 1 4.4434587500 0.9164240625 -4.8456022400
483 1 4.4707906250 1.5027559375 -4.0800354240
484 1 5.0123756250 0.8161668750 -5.6262257560
485 1 5.6029940625 0.7710168750 -4.8413021760
486 1 5.5753262500 1.3358756250 -4.0566570640
487 1 6.1313162500 0.7059659375 -5.7024210768
488 1 2.8617306250 -1.6647450000 -3.2027058000
489 1 2.7104109375 -2.2197137500 -2.3835824640
490 1 3.8937843750 -1.8050996875 -3.1514806400
491 1 4.9960087500 -1.9557475000 -3.2423389200
492 1 6.1453181250 -2.0906196875 -3.2711700720
493 1 2.8149412500 0.0658168750 -2.4613851280
494 1 2.7397987500 -1.0950756250 -2.3790363120
495 1 3.8694893750 -0.6504018750 -3.2503691600
496 1 3.9307240625 -1.2018768750 -2.4260132160
497 1 5.0253696875 -0.8349659375 -3.2481543680
498 1 5.0454318750 -1.4027271875 -2.4321913200
499 1 6.1371615625 -0.9933806250 -3.2109173680
500 1 6.1866250000 -1.5601206250 -2.4208194640
501 1 2.7918287500 1.7603125000 -3.2514312240
502 1 2.7919228125 0.6346396875 -3.2489055840
503 1 3.9290175000 0.4643193750 -3.2636579120
504 1 3.9132418750 -0.1021518750 -2.4342247840
505 1 5.0294950000 0.2674868750 -3.2627901280
506 1 5.0166353125 -0.2793253125 -2.4270752800
507 1 6.1607846875 0.1233696875 -3.2331689040
508 1 6.1290856250 -0.4191693750 -2.4214929680
509 1 3.9078668750 1.5437806250 -3.2656395680
510 1 3.9162921875 0.9970356250 -2.4167266320
511 1 5.0228165625 1.3555615625 -3.2435046000
512 1 5.0185703125 0.7994640625 -2.3986326880
513 1 6.1305100000 1.2416384375 -3.2530372720
514 1 6.1096012500 0.6933481250 -2.4231378720
515 1 3.3291137500 2.1961175000 -4.8459260400
516 1 3.8968884375 2.0930653125 -5.6272645064
517 1 4.4762462500 2.0690121875 -4.8592277440
518 1 5.0416828125 1.9078562500 -5.6623411128
519 1 5.6173318750 1.8896350000 -4.8683848080
520 1 6.1687665625 1.8473740625 -5.6908393984
521 1 3.8795003125 2.0791575000 -2.3997854160
522 1 5.0016390625 1.8933437500 -2.4135145360
523 1 6.1708090625 1.7905200000 -2.4310385920
524 1 2.8054006250 1.1971200000 -2.4466716560
525 1 3.8916478125 -1.8270028125 -6.4298065625
526 1 4.9846675000 1.3537340625 -6.4695316287
527 1 -3.9654331250 6.6793512500 -2.4633926880
528 1 -3.3698562500 2.3381518750 -4.8556011840
529 1 -6.1342872813 6.3584234375 -5.6844864424
530 1 -5.5957458750 6.3947450000 -4.8048422960
531 1 -5.0631828125 6.4036271875 -5.7980262648
532 1 -4.5682662500 6.6483643750 -4.8821268800
533 1 -3.9233468750 6.6611031250 -5.5873477376
534 1 -6.1420098125 6.3196696875 -2.4403899360
535 1 -5.0737581250 6.5149031250 -2.4466198480
536 1 -3.9099631250 2.7143884375 -3.1723981200
537 1 -5.0349237500 2.6052490625 -6.4363091141
538 1 -5.5877586250 2.4683746875 -4.0221788400
539 1 -4.4584281250 2.7000103125 -4.0279683840
540 1 -2.8091362500 2.3299146875 -5.6782694824
541 1 -6.1395883750 3.0121365625 -5.6566992216
542 1 -5.5835029688 3.0312446875 -4.8236486000
543 1 -5.6513381563 3.6390228125 -4.0986215440
544 1 -5.0764321875 3.2176631250 -5.7454955432
545 1 -4.5380587500 3.2506925000 -4.8997416000
546 1 -3.9107559375 3.9120056250 -6.4475233442
547 1 -4.4834487500 3.7689096875 -4.0087217120
548 1 -3.9632831250 3.3071165625 -5.7064944808
549 1 -3.4096446875 3.4393012500 -4.9196099680
550 1 -3.3337496875 3.9473462500 -4.0059888400
551 1 -2.7952015625 3.4509246875 -5.6411024232
552 1 -6.1349685625 4.6289768750 -6.4197971274
553 1 -6.6933856438 4.6247843750 -4.0347422800
554 1 -6.1702473750 4.0730809375 -5.6108219424
555 1 -5.5530119375 4.1959131250 -4.9143903120
556 1 -5.6060175000 4.7280246875 -4.0617731040
557 1 -4.9972315625 4.3720115625 -5.7032927464
558 1 -4.4483365625 4.3164878125 -4.8430636480
559 1 -4.5301440625 4.9092965625 -4.0938811120
560 1 -3.9230646875 4.5019118750 -5.7108528288
561 1 -3.3844225000 4.4972625000 -4.8474543760
562 1 -3.3743040625 5.0404868750 -4.0113898240
563 1 -2.8293596875 4.5960415625 -5.6885313520
564 1 -6.2383593750 5.2259646875 -5.7046151456
565 1 -5.6429867500 5.2802387500 -4.8939520560
566 1 -5.5558029063 5.8135193750 -4.0358691040
567 1 -5.0513443750 5.4683637500 -5.6586174128
568 1 -4.4629565625 5.4672618750 -4.8667269520
569 1 -4.4425584375 6.0697725000 -4.1223755120
570 1 -3.8528940625 5.5909809375 -5.6163110000
571 1 -3.3048859375 5.5963693750 -4.8048293440
572 1 -3.3984781250 6.2122771875 -4.0902934080
573 1 -2.8131943750 5.7560337500 -5.7439581408
574 1 -6.1968751250 2.4671384375 -3.3037054960
575 1 -5.0313762500 2.6109734375 -3.2356815920
576 1 -3.4053984375 2.9046365625 -4.0610477920
577 1 -2.8259734375 2.9019625000 -3.2377539120
578 1 -6.1767417188 3.5120518750 -3.2253199920
579 1 -6.1582423125 2.9652531250 -2.3642710320
580 1 -5.0983218750 3.7216500000 -3.2879429120
581 1 -5.0649968750 3.1830481250 -2.4404287920
582 1 -3.9219493750 3.9218284375 -3.2352541760
583 1 -3.9816656250 3.3380765625 -2.4946847200
584 1 -2.7742390625 4.0289790625 -3.1757138320
585 1 -2.8252075000 3.4565281250 -2.4071939600
586 1 -6.1526482813 4.6380068750 -3.2001542560
587 1 -6.1822430313 4.0747606250 -2.4219074320
588 1 -5.0503365625 4.8127884375 -3.2051148720
589 1 -5.0107765625 4.2506440625 -2.4059505680
590 1 -3.9830093750 5.0228703125 -3.2839277920
591 1 -3.9170984375 4.4942256250 -2.4274249840
592 1 -2.8117700000 5.2271203125 -3.2522731040
593 1 -2.8494353125 4.6445778125 -2.4776139840
594 1 -6.1440281250 5.7964806250 -3.3068010240
595 1 -6.1905111250 5.2497893750 -2.4783133920
596 1 -4.9824368750 5.9526646875 -3.2563270800
597 1 -5.0897084375 5.3938796875 -2.4369058480
598 1 -3.9216537500 6.0789100000 -3.2024856160
599 1 -3.8878987500 5.5447425000 -2.3738943680
600 1 -2.8603196875 6.3466118750 -3.2640335200
601 1 -2.7755425000 5.7711643750 -2.4289015120
602 1 -2.2802228125 2.4573156250 -4.8126394000
603 1 -2.2848721875 3.0476384375 -4.0777947280
604 1 -2.2513321875 3.6379881250 -4.8330128960
605 1 -2.2724962500 4.2177087500 -4.0636511440
606 1 -2.2753853125 4.7609331250 -4.8964647440
607 1 -2.2749553125 5.8201978125 -4.8464829760
608 1 -2.2449225000 6.3738362500 -4.0060017920
609 1 -2.7842231250 2.3581065625 -2.4039818640
610 1 -6.6727383875 6.2940846875 -4.8356939600
611 1 -6.7066290525 2.8852193750 -4.8409395200
612 1 -6.7103941728 5.1993315625 -4.8271844960
613 1 -3.9075578125 2.7290218750 -6.4557746749
614 1 -2.7891143750 2.9070553125 -6.4650209911
615 1 -2.7856878125 4.0134453125 -6.4549807173
616 1 -4.1158659375 6.1115900000 -6.4568154976
617 1 1.0861934375 2.5010546875 -4.8580750160
618 1 -1.7067909375 2.5535281250 -5.6049236016
619 1 -1.1299593750 2.6208096875 -4.8409524720
620 1 -0.5459521875 4.3464668750 -6.4741965894
621 1 -1.1436656250 3.1847009375 -4.0606333280
622 1 -0.5620906250 2.6669540625 -5.6386130488
623 1 0.0211103125 2.6757153125 -4.8766222800
624 1 0.5450518750 3.2252687500 -6.4564788751
625 1 -0.0234081250 3.2064293750 -3.9964950240
626 1 0.5663100000 2.6246931250 -5.7357724768
627 1 1.6545593750 2.4991465625 -5.6900674592
628 1 1.0758465625 3.6093931250 -4.8526092720
629 1 -1.6861509375 3.6343868750 -5.6425647040
630 1 -1.1234018750 3.7705221875 -4.8342692400
631 1 -1.1521446875 4.3337550000 -4.0497277440
632 1 -0.5740768750 3.7812721875 -5.6795854056
633 1 -0.0057646875 4.3006853125 -4.0345091440
634 1 -0.0249400000 3.7475171875 -4.8600955280