ITEM: TIMESTEP
77000
ITEM: NUMBER OF ATOMS
2304
ITEM: BOX BOUNDS pp pp pp
-6.7187500000 6.7187500000
-6.7187500000 6.7187500000
-6.4760000000 6.4760000000
ITEM: ATOMS id type x y z
1 1 -6.1189134375 -6.4773332188 -6.4122041469
2 1 -6.6700107094 -6.3859138750 -4.0290045440
3 1 -5.6177739688 -6.5843239375 -4.0652830960
4 1 -3.9104603125 -5.9361164063 -5.6590888656
5 1 -4.5260725000 -6.5742485000 -4.0769010400
6 1 -2.7941131250 -6.3298069375 -6.4347145934
7 1 -3.3294228125 -6.4248302188 -4.0292894880
8 1 -6.2282395938 -5.3578403125 -6.4734036809
9 1 -6.1622507188 -5.9048836250 -5.6377595120
10 1 -5.5988915938 -6.0161407500 -4.8874631040
11 1 -5.6544502813 -5.4862289063 -4.0523699520
12 1 -5.0031171875 -6.0362593750 -5.6559505960
13 1 -4.4730078125 -5.9807504063 -4.8280781840
14 1 -4.4838787500 -5.3983678125 -4.0662285920
15 1 -3.3570906250 -5.8622948125 -4.8288812080
16 1 -2.8198728125 -5.7486350625 -5.6974332616
17 1 -6.6969859531 -4.7627068750 -4.8559249840
18 1 -6.1319236250 -4.7905628125 -5.6789701856
19 1 -5.5987249688 -4.8970550000 -4.8053733280
20 1 -5.0380546875 -4.3321559375 -6.4554455646
21 1 -5.6047731875 -4.3030368750 -4.0549085440
22 1 -5.0753706250 -4.9443012500 -5.7181966128
23 1 -4.5350890625 -4.8482634375 -4.8916206960
24 1 -4.4663159375 -4.3080759375 -4.0112991600
25 1 -3.9326590625 -4.8623325000 -5.6817522752
26 1 -3.3815468750 -4.7098303125 -4.8990551440
27 1 -3.9166146875 -4.2497034375 -3.2043507040
28 1 -2.7724921875 -4.6380471875 -5.6372194136
29 1 -6.1180695625 -3.1437434375 -6.4651034694
30 1 -6.2126735938 -3.7281403125 -5.6885585512
31 1 -5.6501570000 -3.7629031250 -4.8660923040
32 1 -5.5939224063 -3.1858296875 -4.0660731680
33 1 -5.0748331250 -3.7787190625 -5.6396220096
34 1 -4.4817421875 -3.7932718750 -4.8806633040
35 1 -4.5380318750 -3.2239115625 -4.0748028160
36 1 -3.9288696875 -3.6742425000 -5.7080020936
37 1 -3.4014746875 -3.5944909375 -4.8781247120
38 1 -2.8300584375 -2.9757343750 -6.4468410329
39 1 -3.3645484375 -3.0874537500 -3.9872084400
40 1 -2.8073625000 -3.5599162500 -5.6820462856
41 1 -6.1444043750 -6.4960355313 -3.1688881280
42 1 -5.0521909375 -6.5612342813 -3.2217193360
43 1 -3.9389209375 -6.4939984063 -3.3160228480
44 1 -2.7715650000 -6.3004177813 -3.2521047280
45 1 -6.1991608438 -5.3177696875 -3.2368213680
46 1 -6.1703280000 -5.8870480313 -2.4529404240
47 1 -5.0672275000 -5.4761628750 -3.2909348240
48 1 -5.0359315625 -5.9915407188 -2.4160531280
49 1 -3.9403587500 -5.4209885000 -3.2224576000
50 1 -3.9218553125 -5.9735707500 -2.4117530640
51 1 -2.8180856250 -4.6727159375 -2.3971820640
52 1 -2.8414400000 -5.2004603125 -3.2836558000
53 1 -6.2102575313 -4.2616493750 -3.3087826800
54 1 -6.1495536250 -4.7758084375 -2.3920789760
55 1 -5.0665690625 -4.3659646875 -3.2553038720
56 1 -5.0886334375 -4.9287809375 -2.4368799440
57 1 -3.9764787500 -4.8426196875 -2.4626026160
58 1 -3.3755671875 -4.1743056250 -4.0619155760
59 1 -6.1584250625 -3.1914465625 -3.2227943520
60 1 -6.2001296875 -3.7417793750 -2.4176462240
61 1 -5.0685443750 -3.2198265625 -3.1931472240
62 1 -5.0627931250 -3.8206575000 -2.4486533120
63 1 -3.9795021875 -3.1071665625 -3.2750038640
64 1 -3.9428715625 -3.6619203125 -2.4466716560
65 1 -2.7802187500 -2.9689753125 -3.2456675840
66 1 -2.8153846875 -4.1174515625 -3.2028353200
67 1 -3.3937346875 -5.2645437500 -4.0857602080
68 1 -2.3067215625 -3.9761696875 -4.0973781520
69 1 -2.2738265625 -3.3984781250 -4.8577382640
70 1 -6.2146945938 -2.5889896875 -5.6689181384
71 1 -5.6413460313 -2.6378484375 -4.9068522480
72 1 -5.0301534375 -2.6844765625 -5.6250264008
73 1 -4.4681300000 -2.6411406250 -4.8332978400
74 1 -3.9140212500 -2.5295690625 -5.6416995104
75 1 -3.3391784375 -2.5403996875 -4.8188434080
76 1 -2.8239981250 -2.3871450000 -5.7127101456
77 1 -6.2109925625 -2.5998875000 -2.4648433120
78 1 -5.0503231250 -2.6373646875 -2.4201330080
79 1 -3.8984337500 -2.5741278125 -2.3967676000
80 1 -2.2864712500 -2.3082131250 -4.8771792160
81 1 -2.8338881250 -5.7481929688 -2.4320747520
82 1 -2.8472315625 -3.5224928125 -2.4395869120
83 1 -2.2770246875 -5.6834873750 -4.8683459520
84 1 -6.7054499388 -3.0132653125 -4.0206375520
85 1 -2.8277203125 -2.3963631250 -2.4789609920
86 1 -3.9490528125 -4.2701284375 -6.4441783607
87 1 -3.9806040625 -3.0899262500 -6.4635981751
88 1 -2.2377603125 -5.1424775000 -4.0482771200
89 1 -2.1959428125 -2.8497309375 -4.0321648320
90 1 -1.7019803125 -4.9884703125 -3.2382590400
91 1 -2.1882431250 -6.2386845625 -4.0333305120
92 1 -1.0962850000 -6.6570771156 -4.8071995600
93 1 -0.5975387500 -5.8782948438 -6.3789203563
94 1 -1.1656493750 -6.0236872500 -4.0913036640
95 1 -0.5729750000 -6.4160058125 -5.6854915176
96 1 -0.0343462500 -6.4511610000 -4.8099065280
97 1 -0.0194306250 -5.8365875313 -4.0586257680
98 1 0.5165643750 -6.3452318438 -5.6578014368
99 1 1.0840300000 -6.3430724375 -4.8867896000
100 1 1.0663865625 -5.7861122500 -4.0830014320
101 1 1.6715175000 -6.3165320313 -5.6554726672
102 1 -1.6638850000 -5.6153673125 -5.6273927312
103 1 -1.0668837500 -5.4925781250 -4.9987596400
104 1 -0.5683659375 -4.4162881250 -5.6819374888
105 1 -1.1262640625 -4.9978496875 -4.0254168400
106 1 -0.5833353125 -4.9701684375 -6.3753299324
107 1 -0.1328431250 -5.3419571875 -4.9895119120
108 1 -0.0334593750 -4.7786034375 -4.0903970240
109 1 0.4635400000 -5.2488218750 -5.6452431776
110 1 1.0634840625 -5.2168540625 -4.8663902000
111 1 1.6983253125 -4.5728350000 -6.4394581338
112 1 1.0419437500 -4.6504365625 -4.0772248400
113 1 1.6025696875 -5.1601343750 -5.7133771736
114 1 -2.2142581250 -4.5718540625 -4.8234284160
115 1 -1.6912706250 -4.4666250000 -5.6911100952
116 1 -1.1356703125 -4.4113028125 -4.8459260400
117 1 -0.5473496875 -3.7833012500 -6.4074876761
118 1 -1.1675171875 -3.8832090625 -4.0330585200
119 1 -0.0247921875 -4.1708925000 -4.8470399120
120 1 1.1226493750 -3.5359975000 -4.0568513440
121 1 -0.0055228125 -3.6657096875 -3.9913142240
122 1 0.5597121875 -4.1365731250 -5.6723012008
123 1 1.1004237500 -4.0985450000 -4.8695245840
124 1 1.0961237500 -2.9564515625 -4.8234543200
125 1 1.6695421875 -3.9940415625 -5.6399199056
126 1 -1.6881800000 -3.3962609375 -5.6394393864
127 1 -1.1101390625 -3.3178531250 -4.8453691040
128 1 -0.5605587500 -2.6285900000 -6.4742065107
129 1 -1.1328081250 -2.7183928125 -4.1084391600
130 1 -0.5752056250 -3.2057709375 -5.6830953976
131 1 0.0031846875 -3.1249040625 -4.8777361520
132 1 0.5725315625 -2.9886881250 -5.6826109928
133 1 1.0859784375 -2.3881125000 -4.0555431920
134 1 1.6541831250 -2.4091959375 -3.2672585680
135 1 1.6669890625 -2.9408506250 -5.6149290216
136 1 -1.6496681250 -6.1821086563 -3.1731363840
137 1 -0.5835368750 -6.0112857813 -3.2623756640
138 1 -0.5287521875 -6.5540613438 -2.4062614160
139 1 0.5429556250 -5.8004796250 -3.2331559520
140 1 0.5226650000 -6.3764780625 -2.4362841520
141 1 1.6356662500 -5.7249084688 -3.2587620560
142 1 1.6624337500 -6.2461652188 -2.4049662160
143 1 -1.7542790625 -5.5674357500 -2.4807095120
144 1 -0.5600750000 -4.8542834375 -3.2117074400
145 1 -0.6071331250 -5.4474670938 -2.4601546880
146 1 0.5100606250 -4.6959493750 -3.2202298560
147 1 0.5552643750 -5.2753743750 -2.4077508960
148 1 1.6068696875 -4.6423068750 -3.2877874880
149 1 1.6784781250 -5.1609406250 -2.4071292000
150 1 -1.7561871875 -3.9031100000 -3.2638651440
151 1 -1.7026790625 -4.4359337500 -2.4083078320
152 1 -0.6082081250 -3.7087768750 -3.2674269440
153 1 -0.6287406250 -4.2689190625 -2.4700111600
154 1 0.5745203125 -3.5565434375 -3.2313556240
155 1 0.5266021875 -4.1343693750 -2.4369965120
156 1 1.6887578125 -3.5208937500 -3.2374560160
157 1 1.6457981250 -4.0921621875 -2.4469954560
158 1 -1.6854656250 -3.3713612500 -2.3584685360
159 1 -0.0478509375 -2.5752431250 -4.0476554240
160 1 -0.5373925000 -3.1748109375 -2.4260391200
161 1 0.5305796875 -2.4181990625 -3.2547339840
162 1 0.5236056250 -2.9779784375 -2.4567612640
163 1 2.1896943750 -5.7528195000 -4.0813176720
164 1 2.1718493750 -5.2107937500 -4.9192991200
165 1 2.1963325000 -4.6699075000 -4.0449225520
166 1 2.2388353125 -4.1361700000 -4.8539821840
167 1 2.2107240625 -3.5343850000 -4.0966787440
168 1 2.2238793750 -2.3675262500 -4.0429538480
169 1 -1.6454487500 -2.8321412500 -3.1899092240
170 1 -0.6016237500 -2.5954665625 -3.2221985600
171 1 1.6674593750 -2.9561425000 -2.4433300400
172 1 0.5764015625 -3.5869121875 -6.4478668313
173 1 -1.6976534375 -2.2965628125 -5.6834748912
174 1 1.6282487500 -5.7623910313 -6.4513226839
175 1 -1.6762743750 -5.0668646875 -6.4488620630
176 1 0.5507896875 -2.4430181250 -6.4571395566
177 1 6.6541021875 -5.8673338750 -4.9238452720
178 1 2.2542750000 -6.3083674063 -4.8816088000
179 1 2.2639365625 -2.9358518750 -4.8286610240
180 1 6.6736268750 -5.3267728125 -4.0706581760
181 1 6.6473431250 -4.1868965625 -4.0801001840
182 1 6.6976934375 -3.5846143750 -4.8080284880
183 1 2.7836184375 -6.3603006563 -5.7400608840
184 1 3.3395143750 -6.4433712813 -4.8838883520
185 1 3.3103818750 -5.8836496875 -4.0490283360
186 1 3.9033921875 -6.5579152188 -5.6577690568
187 1 4.4945750000 -6.6798186063 -4.9028371280
188 1 4.4090721875 -6.1320270938 -4.0597007840
189 1 5.0814175000 -6.7176134401 -5.6424105752
190 1 5.5873528125 -6.2400108438 -4.0469948720
191 1 2.7718203125 -5.1836768750 -5.6703584008
192 1 3.3306187500 -5.3593318750 -4.8986018240
193 1 3.3020506250 -4.8203671875 -4.0590013760
194 1 3.9309525000 -5.4273740000 -5.6613463992
195 1 4.4658456250 -5.5387923750 -4.8119918000
196 1 4.4585490625 -4.9567578125 -4.0553489120
197 1 4.9870459375 -5.6349645625 -5.7088841248
198 1 5.5302300000 -5.6626444688 -4.8342433360
199 1 5.6255018750 -5.1001762500 -4.0388351120
200 1 6.0728228125 -5.7743302500 -5.6768499432
201 1 2.7999718750 -4.0547521875 -5.7397124752
202 1 3.3263859375 -4.2379725000 -4.8342692400
203 1 3.8455034375 -3.7593959375 -6.4673334412
204 1 3.3872846875 -3.6663278125 -4.0673813200
205 1 3.8985143750 -4.3555103125 -5.6795569112
206 1 4.4179812500 -4.3831109375 -4.8354349200
207 1 4.9572146875 -3.8902637500 -6.4271896109
208 1 4.5069375000 -3.8187762500 -4.0447541760
209 1 4.9657743750 -4.4954484375 -5.6756065512
210 1 5.5437884375 -4.5808168750 -4.9348544720
211 1 5.5531275000 -4.0507478125 -4.0638583760
212 1 6.1733621875 -4.6244753125 -5.6243541920
213 1 2.7787809375 -2.5867725000 -6.4467881887
214 1 2.7642012500 -3.1378443750 -5.7792173704
215 1 3.2975221875 -3.0915118750 -4.8607949360
216 1 3.3847046875 -2.5374971875 -4.0290174960
217 1 3.8905728125 -3.2118850000 -5.6414948688
218 1 4.4561840625 -3.2893253125 -4.9256844560
219 1 4.4239340625 -2.7558296875 -4.0710467360
220 1 5.0804231250 -3.3314787500 -5.6457793904
221 1 5.6190250000 -3.4724515625 -4.8573885600
222 1 5.5319231250 -2.9106565625 -4.0565016400
223 1 6.1801078125 -3.5355809375 -5.7129419864
224 1 2.7389387500 -5.8601958750 -3.2409012480
225 1 2.8236084375 -6.4158700938 -2.3977519520
226 1 3.8783984375 -6.0041222500 -3.2310188720
227 1 3.9206325000 -6.5971779813 -2.4617736880
228 1 5.0120800000 -6.1433508750 -3.2948722320
229 1 5.0229778125 -6.6899222625 -2.4717467280
230 1 6.1671406250 -6.3459386563 -3.2674269440
231 1 2.7583828125 -4.6818265625 -3.2342309680
232 1 2.7710006250 -5.2791100000 -2.4934154240
233 1 3.8906937500 -4.8752325000 -3.2719342400
234 1 3.8863803125 -5.4371672500 -2.4600510720
235 1 5.0251815625 -5.0756662500 -3.2667145840
236 1 4.9856484375 -5.6155836563 -2.4119343920
237 1 6.1476831250 -5.2111565625 -3.1770478880
238 1 6.0987975000 -5.8038067500 -2.4410375360
239 1 2.7991387500 -3.5990328125 -3.3077465200
240 1 2.7421100000 -4.1167125000 -2.4347558160
241 1 3.9197590625 -3.7937421875 -3.2444500960
242 1 3.8616418750 -4.3432418750 -2.4160660800
243 1 5.0229778125 -3.9286950000 -3.1777343440
244 1 4.9907950000 -4.5282896875 -2.4444439120
245 1 6.1161453125 -4.0495921875 -3.2273534560
246 1 6.1505453125 -4.6163187500 -2.4465291840
247 1 2.7932531250 -2.5249465625 -3.2636967680
248 1 2.7769803125 -3.0595037500 -2.4158458960
249 1 3.9234006250 -2.6245856250 -3.1747942400
250 1 3.8707256250 -3.2306571875 -2.4535491680
251 1 4.9901634375 -2.7769937500 -3.2301510880
252 1 5.0468025000 -3.3381168750 -2.4296397760
253 1 6.1093728125 -2.9843343750 -3.3088603920
254 1 6.1714271875 -3.4981575000 -2.3952651680
255 1 6.6513743750 -2.4906271875 -4.8891080080
256 1 5.0463725000 -2.2496793750 -5.6883733376
257 1 5.5921500000 -2.3165040625 -4.7950376320
258 1 6.0885715625 -2.4220421875 -5.7068208712
259 1 6.1262234375 -2.4562137500 -2.4344708720
260 1 2.7956987500 -5.7176790938 -6.4473333384
261 1 5.0670259375 -5.0538437500 -6.4732074840
262 1 6.1624106250 -5.1848325000 -6.4334051462
263 1 3.8769606250 -2.6310625000 -6.4433924334
264 1 -6.1675182188 -2.0157459375 -6.4365428977
265 1 -6.6943723594 -1.9395150000 -4.0474093360
266 1 -5.6208766875 -2.1217678125 -4.0315560880
267 1 -4.5004068750 -2.0515031250 -4.0904488320
268 1 -2.8389540625 -1.8011490625 -6.4743383361
269 1 -3.3911546875 -1.9412484375 -4.0812011040
270 1 -6.1446314688 -1.4312550000 -5.6598633952
271 1 -5.5848870313 -1.5567881250 -4.8526222240
272 1 -5.6146578125 -1.0002068750 -4.0284605600
273 1 -5.0374634375 -1.5646625000 -5.7088944864
274 1 -4.5149865625 -1.4548378125 -4.8648100560
275 1 -3.9006643750 -0.9556212500 -6.4480320988
276 1 -4.4459984375 -0.9293778125 -4.0102630000
277 1 -3.9098556250 -1.4952981250 -5.6182499144
278 1 -3.3482084375 -1.3518259375 -4.8311607600
279 1 -3.3562843750 -0.7618525000 -4.0863171440
280 1 -2.7813609375 -1.2677206250 -5.6254654736
281 1 -6.7146015884 0.3087668750 -3.9986321040
282 1 -6.1564564688 -0.3442015625 -5.6580695432
283 1 -5.5939586875 -0.4477375000 -4.8227290080
284 1 -5.5656149688 0.1450443750 -4.0696738240
285 1 -5.0633171875 -0.3875106250 -5.6695553768
286 1 -4.4832337500 -0.3869596875 -4.8839272080
287 1 -3.8788015625 0.2304934375 -6.4354261762
288 1 -4.4435931250 0.1563587500 -4.0453888240
289 1 -3.9226346875 -0.3539840625 -5.6999381784
290 1 -3.3707431250 -0.2000171875 -4.8960632320
291 1 -3.3375793750 0.3136984375 -3.9958603760
292 1 -2.7521746875 -0.2119496875 -5.6220603928
293 1 -6.6831466719 1.3916815625 -4.0521627200
294 1 -6.1333950313 0.7531584375 -5.6531218792
295 1 -5.5899368438 0.7186509375 -4.8274046800
296 1 -5.5603434375 1.3130856250 -4.0708913120
297 1 -5.0345071875 0.7002818750 -5.6567251256
298 1 -4.4626878125 0.7190809375 -4.8450841600
299 1 -4.4545446875 1.2967859375 -4.0614622560
300 1 -3.9386656250 0.8235709375 -5.6904534288
301 1 -3.3567950000 0.8467237500 -4.8830723760
302 1 -2.7290756250 1.5280990625 -6.4501428862
303 1 -2.7934278125 0.9379912500 -5.6914908840
304 1 -6.1639492188 -2.0043375000 -3.1834591280
305 1 -5.0429056250 -2.0991121875 -3.2443853360
306 1 -3.9544278125 -2.0396646875 -3.2470534480
307 1 -2.8527275000 -1.8170187500 -3.2668052480
308 1 -6.1936030938 -0.8921828125 -3.2513535120
309 1 -6.1288491250 -1.4248721875 -2.4140455680
310 1 -5.0355150000 -0.9697440625 -3.2626217520
311 1 -5.0312553125 -1.5212728125 -2.4401568000
312 1 -3.8800781250 -0.9374806250 -3.2159556960
313 1 -3.9205787500 -1.4805840625 -2.4067406400
314 1 -2.8239443750 -0.7366571875 -3.2112541200
315 1 -2.7365603125 -1.2911287500 -2.3954464960
316 1 -6.1210594063 0.2131187500 -3.2651603440
317 1 -6.1438534375 -0.3247978125 -2.4364525280
318 1 -5.0098628125 0.1536443750 -3.2395024320
319 1 -5.0646206250 -0.4204190625 -2.4332533840
320 1 -3.8935559375 0.2386231250 -3.1993900880
321 1 -3.9570346875 -0.3469293750 -2.4561654720
322 1 -6.0979200313 1.3346393750 -3.2452401680
323 1 -6.1790596875 0.7688803125 -2.4432005200
324 1 -5.0111125000 1.2060425000 -3.2356815920
325 1 -5.0560743750 0.6864412500 -2.3698922000
326 1 -2.7796140625 1.5300878125 -3.2255013200
327 1 -3.8917687500 0.8161803125 -2.4261686400
328 1 -2.7507100000 0.3579481250 -3.2012292720
329 1 -2.7816431250 0.9516571875 -2.4596625120
330 1 -2.2764737500 -0.6639334375 -4.0862394320
331 1 -2.2430009375 0.5208912500 -4.0844520560
332 1 -2.2510365625 1.0842718750 -4.8829558080
333 1 -6.7073687063 1.9601415625 -4.8383102640
334 1 -6.1415569688 1.8589571875 -5.6689997360
335 1 -5.5786184375 1.8677721875 -4.8682423360
336 1 -5.0055225000 1.8075990625 -5.6700371912
337 1 -4.4469390625 1.8635931250 -4.8555493760
338 1 -3.8796346875 1.9214818750 -5.6513604072
339 1 -3.3317743750 1.9601953125 -4.8258763440
340 1 -3.3322043750 1.3848150000 -4.0390812000
341 1 -2.7991118750 2.1075240625 -5.6775817312
342 1 -6.1364171250 1.8584196875 -2.3766401920
343 1 -4.9868578125 1.7781306250 -2.4297822480
344 1 -3.9114681250 1.3745353125 -3.2336610800
345 1 -3.8920375000 1.9242500000 -2.4036321600
346 1 -2.7877840625 -0.1858540625 -2.3714982480
347 1 -2.7816431250 2.0919231250 -2.4298858640
348 1 -6.7142985997 -1.3976881250 -4.8731640960
349 1 -6.7018225125 -0.2550840625 -4.8199702320
350 1 -5.0538034375 -2.1581028125 -6.4652806140
351 1 -5.0118112500 -0.9733587500 -6.4458679491
352 1 -2.7673859375 0.3535137500 -6.4286841422
353 1 -2.2349787500 -1.7858437500 -3.9809008160
354 1 -2.1895465625 -1.2508834375 -4.8395277520
355 1 -2.1985496875 -0.0707753125 -4.8246977120
356 1 1.6672578125 -1.8531253125 -2.4547148480
357 1 -1.6864196875 0.5317756250 -3.2284802800
358 1 -1.6962962500 -1.6918753125 -6.4274645818
359 1 -1.0823234375 -1.6004331250 -4.0161173040
360 1 -0.5799221875 -2.0857418750 -5.6434026984
361 1 -0.5100740625 -1.5060481250 -3.2163183520
362 1 -1.1643056250 -2.1367640625 -4.8778915760
363 1 -0.0176031250 -2.0039881250 -4.8491510880
364 1 0.0202906250 -1.4173606250 -4.0964715120
365 1 0.5442321875 -1.8761975000 -5.6288109752
366 1 1.1365303125 -1.8067928125 -4.8372482000
367 1 1.1302684375 -1.2316543750 -4.0692334560
368 1 1.6621381250 -1.8831043750 -5.6755884184
369 1 -1.6753875000 -1.0894184375 -5.7122425784
370 1 -1.1314240625 -1.0503421875 -4.8523372800
371 1 -0.5490428125 -0.3662928125 -3.2570264880
372 1 -0.5806746875 -0.9657531250 -5.6977700136
373 1 -0.0529303125 -0.8283546875 -4.8397738400
374 1 0.5185396875 -0.8087628125 -5.6322341888
375 1 0.0528093750 -0.2871056250 -3.9970390080
376 1 1.1029500000 -0.6659356250 -4.8780210960
377 1 1.1456275000 -0.1292821875 -4.0427725200
378 1 1.6761131250 -0.7011687500 -5.6510780536
379 1 -1.6212746875 0.0098900000 -5.6156038208
380 1 -1.1252293750 -0.5023206250 -3.9900319760
381 1 -1.0556231250 0.0449618750 -4.8097899600
382 1 -0.5386825000 0.2190446875 -5.6831614528
383 1 0.0156815625 0.2582553125 -4.8507312320
384 1 -0.0041118750 0.7879346875 -3.9906018640
385 1 0.5698709375 0.3352521875 -5.6993734712
386 1 1.1076262500 0.4368934375 -4.8659886880
387 1 1.6894431250 0.4416637500 -5.6775506464
388 1 1.1480328125 0.9474915625 -3.9677545360
389 1 -1.6276171875 1.6377893750 -6.4245986928
390 1 -2.2018687500 1.6125671875 -3.9961194160
391 1 -1.6358678125 1.0658893750 -5.6148020920
392 1 -1.1411528125 0.6511543750 -4.0954094480
393 1 -1.0922403125 1.2467581250 -4.8253194080
394 1 -0.5043228125 1.3088662500 -5.5997868384
395 1 0.0623365625 1.3501193750 -4.8099324320
396 1 0.0019350000 1.9523746875 -4.0966787440
397 1 0.5877025000 1.4970718750 -5.6865756000
398 1 1.1397418750 1.4853275000 -4.8235320320
399 1 1.6628368750 1.5626200000 -5.7044273416
400 1 -1.6518718750 -1.6655378125 -3.2375725840
401 1 -0.6129784375 -0.9301437500 -2.4470990720
402 1 0.5555196875 -1.3390334375 -3.2395930960
403 1 0.5712012500 -1.8837225000 -2.3841653040
404 1 1.6543040625 -1.2605315625 -3.2259546400
405 1 -1.6667203125 -1.0801734375 -2.4653743440
406 1 -0.5198565625 0.2080662500 -2.4555567280
407 1 -0.6138384375 0.7728981250 -3.2455251120
408 1 0.6175875000 -0.2385962500 -3.1966701680
409 1 1.7097337500 -0.1199028125 -3.1908806240
410 1 -1.6639387500 1.0830625000 -2.3842689200
411 1 -1.7461628125 -0.5222081250 -3.2701339120
412 1 -0.5221140625 1.8299187500 -3.2303065120
413 1 -1.5909462500 -0.0027412500 -2.3675090320
414 1 -0.4898775000 1.3042571875 -2.3520184400
415 1 0.5608812500 0.9529203125 -3.2129378800
416 1 1.7291509375 0.9658875000 -3.2120441920
417 1 1.6560106250 0.4194784375 -2.3676126480
418 1 -1.6243250000 1.6333415625 -3.2095962640
419 1 0.5481962500 2.0687568750 -3.2572466720
420 1 1.1296100000 2.0696975000 -4.0337579280
421 1 1.6888115625 1.5480268750 -2.4325280720
422 1 2.2157093750 -0.2250512500 -4.0662285920
423 1 1.6788812500 2.1225471875 -3.2144791680
424 1 -2.2251693750 2.1439934375 -4.8678019680
425 1 -1.6593834375 2.2177250000 -2.4692081360
426 1 -1.7476275000 -2.2331243750 -2.4524352960
427 1 -0.5719806250 -2.0591087500 -2.3815878560
428 1 0.5127750000 -0.7991146875 -2.3897735200
429 1 0.5300825000 0.3564834375 -2.4723295680
430 1 0.6087993750 1.5276825000 -2.4296268240
431 1 1.6677684375 -0.7201021875 -2.4218297200
432 1 -1.1022243750 1.8277687500 -4.0523440480
433 1 2.2183296875 0.3727025000 -4.8164084320
434 1 2.2131831250 1.5016406250 -4.8719077520
435 1 -1.6734525000 2.2321568750 -5.6975291064
436 1 1.6675400000 -1.2651137500 -6.4200152390
437 1 -0.5597659375 -0.3657687500 -6.4514927437
438 1 1.6846056250 -0.1431765625 -6.4527467563
439 1 0.5303109375 0.9173781250 -6.4602914258
440 1 1.6908406250 2.1478365625 -6.4582534286
441 1 0.5809568750 -0.2492118750 -6.4610814978
442 1 5.0658837500 -2.2332856250 -2.3799300000
443 1 6.7171509375 0.8332593750 -4.8613648240
444 1 2.2525818750 -1.8281718750 -4.9042488960
445 1 2.2628212500 -0.7665556250 -4.9027335120
446 1 6.6845784375 -0.8332593750 -4.0624725120
447 1 2.7481165625 -1.3672118750 -6.4468090414
448 1 2.2397759375 -1.3035181250 -4.0248728560
449 1 2.8079940625 -1.9478865625 -5.7130430120
450 1 3.3554109375 -2.0371250000 -4.9320309360
451 1 3.3192506250 -1.4899768750 -4.0732097200
452 1 3.9656078125 -2.0694825000 -5.6593802856
453 1 4.5104984375 -2.1661250000 -4.8225088240
454 1 4.4560496875 -1.5955821875 -4.0429538480
455 1 5.6341825000 -1.7307634375 -4.0310121040
456 1 2.7828928125 -0.2070450000 -3.2660799360
457 1 2.8428106250 -0.7668512500 -5.6813676008
458 1 3.3794103125 -0.9000571875 -4.8205012640
459 1 3.3490415625 -0.3033784375 -4.0575896080
460 1 3.8900621875 -0.9808031250 -5.7058688992
461 1 4.4453131250 -1.0252006250 -4.8297230880
462 1 5.0574853125 -0.5523618750 -6.4323419165
463 1 4.5297140625 -0.4588234375 -4.0264659520
464 1 4.9692546875 -1.1410050000 -5.6850848248
465 1 5.5431434375 -1.2071578125 -4.9059197040
466 1 6.1337081250 -0.7355150000 -6.4674201160
467 1 5.6072537500 -0.6626568750 -4.0655421360
468 1 6.1440415625 -1.2723028125 -5.6270417320
469 1 2.2811634375 0.9549359375 -4.0577450320
470 1 2.7613928125 0.3371065625 -5.6605071096
471 1 3.3381840625 0.2567771875 -4.8710658720
472 1 3.3769109375 0.8264196875 -4.0760850640
473 1 3.9040371875 0.1603631250 -5.6548639232
474 1 4.4715028125 0.0552550000 -4.9042748000
475 1 4.4356650000 0.6183668750 -4.0768751360
476 1 5.0814712500 0.0117443750 -5.6389407344
477 1 5.6362787500 -0.0867793750 -4.8525186080
478 1 5.5487065625 0.4733225000 -4.0407131520
479 1 6.1932362500 -0.1630909375 -5.6824439120
480 1 2.7985206250 1.4526071875 -5.6379641536
481 1 3.3941915625 1.3909290625 -4.9152969520
482 1 3.3383050000 1.9114843750 -4.0627704080
483 1 3.9881290625 1.3350021875 -5.6505340696
484 1 4.5328315625 1.1809950000 -4.8386340640
485 1 4.4857868750 1.7677837500 -4.0567606800
486 1 5.0754915625 1.1048850000 -5.6858101368
487 1 5.6248031250 1.0381140625 -4.8220555040
488 1 6.1802959375 1.5272121875 -6.4688754286
489 1 5.6392081250 1.6077968750 -4.0140967920
490 1 6.1648428125 0.9603781250 -5.6788354848
491 1 2.7967468750 -1.3232846875 -3.1967996880
492 1 2.7733118750 -1.9409528125 -2.4919129920
493 1 3.8836121875 -1.4868728125 -3.2572207680
494 1 3.9191946875 -2.0388718750 -2.4244460240
495 1 5.0233271875 -1.7240850000 -3.2890049760
496 1 6.1711853125 -1.8774606250 -3.2231958640
497 1 2.8115684375 0.3187912500 -2.3855641200
498 1 2.8233262500 -0.7539378125 -2.4211950720
499 1 3.9115084375 -0.4139959375 -3.2946779520
500 1 3.9493081250 -0.9385690625 -2.4149263040
501 1 5.0694850000 -0.5856868750 -3.2057365680
502 1 5.0011418750 -1.1789525000 -2.4527720480
503 1 6.1547243750 -0.7189196875 -3.1910101440
504 1 6.1213187500 -1.3103040625 -2.4382787600
505 1 2.8231381250 2.0210806250 -3.2193750240
506 1 2.8241862500 0.8604971875 -3.2279622000
507 1 3.9235618750 0.7323975000 -3.1927068560
508 1 3.8931259375 0.1328431250 -2.4531476560
509 1 4.9973793750 0.5604512500 -3.2180409680
510 1 5.0113946875 -0.0148618750 -2.4272307040
511 1 6.1159706250 0.3813696875 -3.2651473920
512 1 6.1914490625 -0.1410937500 -2.4101988240
513 1 2.2399640625 2.0389256250 -4.0032300640
514 1 3.9169103125 1.8116571875 -3.2592671840
515 1 3.9308718750 1.2921903125 -2.3772100800
516 1 5.0319943750 1.6409875000 -3.2696546880
517 1 5.1066128125 1.1093865625 -2.4120768640
518 1 6.2106109375 1.5398434375 -3.2322622640
519 1 6.1915431250 0.9548821875 -2.4840122720
520 1 5.0195512500 2.2226296875 -5.6583946384
521 1 5.5781884375 2.1341706250 -4.8978247040
522 1 6.1923225000 2.0812403125 -5.6389757048
523 1 5.0516668750 2.2111540625 -2.4834294320
524 1 6.1340306250 2.1094993750 -2.4320618000
525 1 2.7946909375 1.4436040625 -2.4477855280
526 1 2.7770878125 1.9979815625 -6.4422284371
527 1 6.2021587500 -1.8377796875 -6.4524299504
528 1 2.8609915625 0.8937012500 -6.4748364454
529 1 3.9013093750 0.7334456250 -6.4239505747
530 1 -6.2124532188 6.3534515625 -5.6718711944
531 1 -5.6122565313 6.3078178125 -4.9105824240
532 1 -5.0360121875 6.3028056250 -5.6538135160
533 1 -4.4453668750 6.3012737500 -4.8629061120
534 1 -3.9169506250 6.4129931250 -5.7234201544
535 1 -3.3907112500 6.4681943750 -4.8487107200
536 1 -2.8245893750 6.5293081250 -5.6611624808
537 1 -6.1801252813 6.3400543750 -2.4531865120
538 1 -5.0129400000 6.3034103125 -2.4371001280
539 1 -3.9358840625 6.4233534375 -2.4169468160
540 1 -2.8553746875 6.5782878125 -2.4494433840
541 1 -2.2515740625 6.6631859375 -4.8876185280
542 1 -3.8851037500 2.4531903125 -3.2829304880
543 1 -6.6734008563 2.5449415625 -4.0971579680
544 1 -5.0368050000 2.4049362500 -6.4297850622
545 1 -5.5848292500 2.4326981250 -4.0380191360
546 1 -4.4978806250 2.4234934375 -4.0251189440
547 1 -6.1465019688 3.5622678125 -6.4343734377
548 1 -6.7040618719 3.6906900000 -4.0578875040
549 1 -6.1871759375 3.0089653125 -5.6369318792
550 1 -5.5618444063 2.9554303125 -4.9244281120
551 1 -5.6345090313 3.4815621875 -4.0452463520
552 1 -4.9719018750 2.9800881250 -5.6534042328
553 1 -4.4193787500 2.9640437500 -4.8366006000
554 1 -4.5162093750 3.5450409375 -4.0419435920
555 1 -3.8619375000 3.0222684375 -5.6723063816
556 1 -3.3348784375 3.1318915625 -4.8047904880
557 1 -3.3499418750 3.7019237500 -4.0118949520
558 1 -2.7809578125 3.1756171875 -5.6583868672
559 1 -6.7041050063 4.2329468750 -4.9038732880
560 1 -6.1087130313 4.1500778125 -5.6441837040
561 1 -5.5597024688 4.0544162500 -4.8323782480
562 1 -5.5792688125 4.6190331250 -4.0426559520
563 1 -5.0162590625 4.0970265625 -5.6834256736
564 1 -4.4526903125 4.0750428125 -4.8587744240
565 1 -4.4290806250 4.6598293750 -4.0623041360
566 1 -3.9003821875 4.1332406250 -5.6762943024
567 1 -3.3260096875 4.2207859375 -4.8634889520
568 1 -3.3869218750 4.7960453125 -4.0535874400
569 1 -2.7613659375 4.2931065625 -5.6691111232
570 1 -6.6600150906 5.3543600000 -4.8257986320
571 1 -6.1475635313 5.2340271875 -5.7252735856
572 1 -5.6101293750 5.1944134375 -4.8128466320
573 1 -4.9643365625 5.7450687500 -6.4754403324
574 1 -5.5491607500 5.7943575000 -4.0479533200
575 1 -5.0902862500 5.1780868750 -5.6856521224
576 1 -4.5173381250 5.1936878125 -4.9035883440
577 1 -3.9126640625 5.7932018750 -6.4459601674
578 1 -4.4537653125 5.7319940625 -4.0460882320
579 1 -3.9099362500 5.2483650000 -5.6254473408
580 1 -3.3369075000 5.3478696875 -4.8894318080
581 1 -3.3328225000 5.8822925000 -4.0531470720
582 1 -2.7493528125 5.4310209375 -5.6357972840
583 1 -6.1612536563 2.4110906250 -3.2147770640
584 1 -5.0459559375 2.3423443750 -3.2049335440
585 1 -3.3178934375 2.5341243750 -4.0677698800
586 1 -2.7675068750 2.6650056250 -3.2344382000
587 1 -6.1709004375 3.5661646875 -3.1999599760
588 1 -6.1291151875 2.9891718750 -2.4420607440
589 1 -5.0522850000 3.5222643750 -3.2224964560
590 1 -4.9776800000 2.9345484375 -2.4706069520
591 1 -3.9275528125 3.5437375000 -3.2635672480
592 1 -3.8797690625 2.9855303125 -2.4226975040
593 1 -2.7552921875 3.7510512500 -3.2688257600
594 1 -2.8030625000 3.2020084375 -2.4028938960
595 1 -6.1571632813 4.7090240625 -3.2880465280
596 1 -6.1285897813 4.1690784375 -2.4620068240
597 1 -5.0030096875 4.6234137500 -3.2619223440
598 1 -5.0356090625 4.0855240625 -2.4186953360
599 1 -3.9168028125 4.6874837500 -3.1584876720
600 1 -3.8610237500 4.0827156250 -2.4397164320
601 1 -2.8310259375 4.8599137500 -3.2288040800
602 1 -2.7414112500 4.2810262500 -2.4266349120
603 1 -6.1423390313 5.7895468750 -3.2743692160
604 1 -6.1587287500 5.2501925000 -2.4157811360
605 1 -5.0205321875 5.7358237500 -3.2258251200
606 1 -5.0745240625 5.1751440625 -2.4246532560
607 1 -3.8938246875 5.8592740625 -3.2438543040
608 1 -3.9401975000 5.2982315625 -2.4544428560
609 1 -2.7930246875 5.9831812500 -3.1826172480
610 1 -2.7591890625 5.4035950000 -2.4089554320
611 1 -2.2710315625 6.1007056250 -4.0673424640
612 1 -2.2662075000 4.9535731250 -4.0263882400
613 1 -6.1147639375 2.4474256250 -6.4401335806
614 1 -2.7987893750 3.7372509375 -6.4735959793
615 1 -2.8024443750 4.8729750000 -6.4459140582
616 1 -2.7907671875 5.9755756250 -6.4706474176
617 1 -1.6590609375 6.7112115625 -5.6235304448
618 1 -2.1913606250 2.6897709375 -4.0285512240
619 1 -1.6721759375 6.6902087500 -2.3917551760
620 1 1.1768562500 2.6035021875 -4.8634889520
621 1 -1.6071653125 2.8253418750 -6.4514076490
622 1 -1.1318406250 2.3770534375 -4.8761819120
623 1 -0.5025490625 4.1321118750 -6.4579073512
624 1 -1.0752956250 2.9133843750 -3.9848770800
625 1 -0.5258093750 2.3743121875 -5.6410402536
626 1 -0.0016125000 2.5628537500 -4.8127300640
627 1 0.6139190625 3.0969003125 -6.4574878359
628 1 0.0598371875 3.1577721875 -4.0672777040
629 1 0.5861840625 2.5548718750 -5.5959478656
630 1 1.7560125000 2.7082340625 -5.6408032320
631 1 1.6672846875 3.2392840625 -6.4739844227
632 1 1.1651118750 3.7906515625 -4.8846007120
633 1 -2.2266475000 3.2558390625 -4.8297619440
634 1 -2.1781515625 3.8191390625 -4.0469560160