ITEM: TIMESTEP
34000
ITEM: NUMBER OF ATOMS
2304
ITEM: BOX BOUNDS pp pp pp
-6.7187500000 6.7187500000
-6.7187500000 6.7187500000
-6.4760000000 6.4760000000
ITEM: ATOMS id type x y z
1 1 -5.6449257813 -6.5325237188 -4.0196661520
2 1 -4.4941987500 -6.6130549250 -4.0647650160
3 1 -3.3595362500 -6.5066726563 -4.0884412720
4 1 -6.6654932906 -5.7780484063 -4.8814015680
5 1 -6.1317583438 -5.8783284375 -5.7365897480
6 1 -5.6067726875 -5.9775280938 -4.8456670000
7 1 -5.6011423750 -5.4331400313 -3.9939046240
8 1 -5.0598503125 -6.0177035313 -5.7006220440
9 1 -4.5247690625 -6.0471706250 -4.8463923120
10 1 -4.4470734375 -5.4702933750 -4.0790899280
11 1 -3.9485825000 -6.0004363438 -5.6052707152
12 1 -3.3435590625 -5.9327153750 -4.8584894800
13 1 -3.3586762500 -5.3466200000 -4.1072864320
14 1 -2.7873943750 -5.7753716563 -5.6461511128
15 1 -6.1639478750 -4.7253640625 -5.6934181416
16 1 -5.6360543438 -4.8914650000 -4.8348132240
17 1 -5.5796060938 -4.2974334375 -4.0767326640
18 1 -5.0734356250 -4.9205571875 -5.6741455656
19 1 -4.5396578125 -4.8787665625 -4.8384138800
20 1 -4.4565065625 -4.3173478125 -4.0359986240
21 1 -3.9748931250 -4.9137981250 -5.6487777784
22 1 -3.4038396875 -4.7617528125 -4.8659886880
23 1 -3.3410865625 -4.2081546875 -4.0470207760
24 1 -2.8199265625 -4.6695984375 -5.6113322512
25 1 -6.1819581563 -3.6462118750 -5.6265987736
26 1 -5.6059825625 -3.7355846875 -4.8496173600
27 1 -5.5754189688 -3.1509728125 -4.1014191760
28 1 -5.0468293750 -3.8083756250 -5.6472947744
29 1 -4.4517631250 -3.7721212500 -4.8846913760
30 1 -3.9431403125 -3.1583903125 -6.4259376706
31 1 -4.4985659375 -3.2305093750 -4.0229948160
32 1 -3.8948728125 -3.7663565625 -5.7124200208
33 1 -3.3751640625 -3.6248596875 -4.8259281520
34 1 -3.3724228125 -3.0754406250 -3.9934124480
35 1 -2.8121865625 -3.5830421875 -5.6601522248
36 1 -6.2043772813 -6.4718749063 -3.2047522160
37 1 -5.0536018750 -6.5987501688 -3.2612876960
38 1 -3.9187781250 -6.5397033750 -3.2853266080
39 1 -2.8323025000 -6.3178274063 -3.2379093360
40 1 -6.1903794375 -5.3065628125 -3.2611970320
41 1 -6.1256066563 -5.8738913750 -2.4778989280
42 1 -4.9942618750 -5.4460131563 -3.2703540960
43 1 -5.0526478125 -6.0233660938 -2.4775492240
44 1 -3.8923600000 -5.4474415625 -3.2456287280
45 1 -3.9680668750 -6.0210212500 -2.4151335360
46 1 -2.8224796875 -5.2520737500 -3.2381165680
47 1 -2.8333103125 -5.7923512813 -2.3686488080
48 1 -6.1167701563 -4.1624806250 -3.2598888800
49 1 -6.1686066563 -4.7327278125 -2.4763187840
50 1 -5.0188256250 -4.3470984375 -3.2401241280
51 1 -5.0927587500 -4.9056281250 -2.4281762000
52 1 -3.9059453125 -4.3606031250 -3.2236362320
53 1 -3.9552071875 -4.9174531250 -2.4012101360
54 1 -2.7936696875 -4.1438696875 -3.2448516080
55 1 -2.7980503125 -4.7003568750 -2.4136440560
56 1 -6.1331222500 -3.0758303125 -3.2490092000
57 1 -6.1933047813 -3.6204521875 -2.4121027680
58 1 -5.0688131250 -3.2471853125 -3.2135466240
59 1 -5.0460634375 -3.8037128125 -2.3924804880
60 1 -3.9359243750 -3.1906268750 -3.2187792320
61 1 -3.9136853125 -3.7655906250 -2.4675114240
62 1 -2.7348134375 -3.0469665625 -3.2842515920
63 1 -2.8066637500 -3.5902581250 -2.4323985520
64 1 -2.2511709375 -6.3290517500 -4.0294319600
65 1 -2.2667315625 -5.2155371875 -4.0673295120
66 1 -2.2734637500 -3.4826640625 -4.8225606320
67 1 -6.1683419375 -2.5617250000 -5.6773058536
68 1 -5.6025573438 -2.5760493750 -4.8647452960
69 1 -5.0365228125 -2.6661343750 -5.6461705408
70 1 -4.4417790625 -2.6957506250 -4.8875408160
71 1 -3.8681859375 -2.5847703125 -5.6521530696
72 1 -3.3038781250 -2.5407625000 -4.8548111120
73 1 -2.7470146875 -2.4845668750 -5.6948622896
74 1 -6.1688310625 -2.5341512500 -2.3807718800
75 1 -5.0074843750 -2.6788328125 -2.4187860000
76 1 -3.8611581250 -2.6056253125 -2.4685346320
77 1 -2.7736746875 -2.4955050000 -2.4592869040
78 1 -6.7084347838 -4.7121146875 -4.8378569440
79 1 -6.7149761722 -4.1486534375 -4.0074265120
80 1 -6.6959610750 -3.0457303125 -4.0829237200
81 1 -6.2087619375 -6.4875175000 -6.4418065905
82 1 -2.8307840625 -5.2246209375 -6.4524927676
83 1 -3.9018871875 -4.3461309375 -6.4621113114
84 1 -5.0203575000 -3.2372415625 -6.4447132783
85 1 -2.2187865625 -4.6565506250 -4.8633594320
86 1 -2.2254246875 -4.0759968750 -4.0889723040
87 1 -2.1741471875 -2.9143787500 -4.0562685040
88 1 -1.1308059375 -6.6248695781 -4.8722315520
89 1 -1.1688340625 -6.0950685938 -3.9719768880
90 1 -0.5694543750 -6.6529968188 -5.6823260488
91 1 -0.0490334375 -6.4632251875 -4.8083134320
92 1 -0.0267540625 -5.8811019375 -4.0272819280
93 1 0.5132856250 -6.4096041875 -5.6205553704
94 1 1.0934496875 -6.3613810313 -4.8445272240
95 1 1.1542678125 -5.7762773438 -4.1080376480
96 1 1.6589803125 -6.2769841250 -5.6301489168
97 1 -2.1925028125 -5.7757411875 -4.8701721840
98 1 -1.7376165625 -5.0308521875 -6.4704728506
99 1 -1.6659140625 -5.6083878750 -5.7176344960
100 1 -1.0944709375 -5.5806031563 -4.9009331840
101 1 -1.1415693750 -5.0655612500 -4.0283310400
102 1 -0.5413028125 -5.4965462188 -5.7159287176
103 1 -0.0059125000 -5.3335721875 -4.8412374160
104 1 -0.0412128125 -4.7786706250 -3.9941248080
105 1 0.5467987500 -5.3541181250 -5.6810023544
106 1 1.0786953125 -5.1716503125 -4.8165250000
107 1 1.1008000000 -4.6098418750 -4.0331621360
108 1 1.6337715625 -5.1677803125 -5.6601120736
109 1 -1.6989300000 -3.9209684375 -6.4758058197
110 1 -1.6640193750 -4.4698231250 -5.6498735176
111 1 -1.0918371875 -4.5007428125 -4.8668694240
112 1 -0.6178562500 -3.7686275000 -6.4631124492
113 1 -1.1224612500 -3.9438793750 -4.0924693440
114 1 -0.5425121875 -4.3453784375 -5.6918548352
115 1 0.0145259375 -4.2542721875 -4.8844970960
116 1 -0.0101587500 -3.7231684375 -4.0649204400
117 1 0.5786053125 -4.2070796875 -5.6812562136
118 1 1.1388281250 -4.0607721875 -4.8811425280
119 1 1.0865293750 -3.5410500000 -4.0033984400
120 1 1.6875618750 -4.0424703125 -5.7217985640
121 1 -1.7011337500 -3.3890718750 -5.6109242632
122 1 -1.1241812500 -3.3367328125 -4.8437112480
123 1 -0.5682046875 -2.6475637500 -6.4137835138
124 1 -1.0031631250 -2.7712290625 -3.9610194960
125 1 -0.5418806250 -3.2388675000 -5.6237001160
126 1 0.5670490625 -3.0875881250 -5.7155725376
127 1 0.0250206250 -3.1182793750 -4.8400199280
128 1 1.0775128125 -2.9835953125 -4.8254489280
129 1 1.1049521875 -2.4250656250 -4.0257794960
130 1 1.6430703125 -2.3204009375 -3.2219006640
131 1 1.6332206250 -2.8994900000 -5.6634031768
132 1 -1.7271487500 -6.1945947813 -3.1609485520
133 1 -0.5549015625 -6.1029483438 -3.2277679200
134 1 -0.5653021875 -6.6760299031 -2.4305464160
135 1 0.5934268750 -5.8898054063 -3.3100778800
136 1 0.5209853125 -6.3962083438 -2.3713169200
137 1 1.6706306250 -5.7162587500 -3.2277420160
138 1 1.6593162500 -6.2642897188 -2.4003294000
139 1 -1.7306828125 -5.0300190625 -3.2359794880
140 1 -1.6774837500 -5.5823849688 -2.4529404240
141 1 -0.6092696875 -4.8616875000 -3.1942610960
142 1 -0.5341675000 -5.4995400938 -2.5139572960
143 1 0.5524559375 -4.7846637500 -3.2345418160
144 1 0.5415178125 -5.3605950000 -2.4282798160
145 1 1.6977878125 -4.6296890625 -3.2586584400
146 1 1.6372115625 -5.1561703125 -2.4053159200
147 1 -1.6837725000 -3.9510146875 -3.2678284560
148 1 -1.6857075000 -4.4558212500 -2.4034896880
149 1 -0.5856196875 -3.6762312500 -3.2393599600
150 1 -0.5680165625 -4.2812546875 -2.4529015680
151 1 0.5051290625 -3.5902984375 -3.2067338720
152 1 0.5788606250 -4.1929031250 -2.4918611840
153 1 1.6690046875 -3.4870446875 -3.2561328000
154 1 1.6649734375 -4.0576950000 -2.4569814480
155 1 -1.5815400000 -2.8592446875 -3.2628678400
156 1 -1.7136709375 -3.4095237500 -2.3898900880
157 1 -0.0964678125 -2.5842328125 -3.9202206960
158 1 -0.5744934375 -3.1313943750 -2.5176745200
159 1 0.4961931250 -2.4892028125 -3.2589045280
160 1 0.5604378125 -3.0224700000 -2.4051216400
161 1 -2.2379081250 -2.3182375000 -4.7921752400
162 1 -1.7021281250 -2.3122443750 -5.6822755360
163 1 -1.1675306250 -2.2474890625 -4.8312902800
164 1 -1.6907600000 -2.3269315625 -2.3947470880
165 1 1.6676743750 -2.9232340625 -2.4770700000
166 1 2.2107912500 -5.1688284375 -4.8844970960
167 1 2.1961846875 -4.0645615625 -4.8206437360
168 1 2.1914546875 -2.9463062500 -4.8607172240
169 1 2.2169725000 -2.3803859375 -4.0790122160
170 1 -1.6954496875 -6.2047118750 -6.4514104985
171 1 -0.5424315625 -6.0807643750 -6.4747290980
172 1 1.6935953125 -5.7348737188 -6.4750524731
173 1 0.5155431250 -2.4877112500 -6.4309946494
174 1 6.6936218750 -6.3431732188 -4.0745826320
175 1 6.7123134375 -2.4588743750 -4.8564301120
176 1 2.2501765625 -5.7328097188 -4.0369182160
177 1 2.2551081250 -4.6447525000 -4.0308566800
178 1 2.2505125000 -3.4862921875 -4.0343925760
179 1 6.6566418750 -5.2507703125 -4.0010541280
180 1 6.6709528125 -3.6086809375 -4.8538656160
181 1 2.2664628125 -6.2591270313 -4.9056347600
182 1 2.8222915625 -6.3317674688 -5.7288379760
183 1 3.3572250000 -6.4079567500 -4.8828262880
184 1 3.3271518750 -5.8912660625 -3.9879596560
185 1 3.9227690625 -6.4517213438 -5.7137566672
186 1 4.4315665625 -6.6381309125 -4.8213042880
187 1 4.4871709375 -6.0558364688 -4.0624725120
188 1 4.9844256250 -6.6106733969 -5.6661036688
189 1 6.1553156250 -6.3192719375 -6.4574862817
190 1 5.6280146875 -6.1538495938 -4.1191634160
191 1 2.7767250000 -5.1310421875 -5.6877892024
192 1 3.3218171875 -5.3500868750 -4.8596422080
193 1 3.3795043750 -4.7865450000 -4.0621746160
194 1 3.8854531250 -5.3260471875 -5.6684687040
195 1 4.4232621875 -5.4825000000 -4.8232600400
196 1 5.0165546875 -5.0274928125 -6.4729292233
197 1 4.4818900000 -4.8686750000 -4.1178552640
198 1 4.9936840625 -5.5625471875 -5.6066125424
199 1 5.6053725000 -5.5755640938 -4.8865564640
200 1 5.5490156250 -5.0114484375 -4.0854234560
201 1 6.1784415625 -5.7567298125 -5.6412138104
202 1 2.7578318750 -4.0372296875 -5.6644458128
203 1 3.3078690625 -4.2003071875 -4.8287775920
204 1 3.8907206250 -3.7310562500 -6.4744650844
205 1 3.3665237500 -3.5993150000 -4.1139567120
206 1 3.8859503125 -4.2550515625 -5.5897878944
207 1 4.5121915625 -4.2916956250 -4.8853001200
208 1 4.4248343750 -3.7328165625 -4.0748287200
209 1 5.0691893750 -4.4742978125 -5.6403589784
210 1 5.6761612500 -4.4478662500 -4.8831112320
211 1 6.1513381250 -4.0134721875 -6.4639370253
212 1 5.5387225000 -3.9261687500 -3.9955495280
213 1 6.1962462500 -4.6094790625 -5.7334462976
214 1 2.7795334375 -2.9661668750 -5.6039392496
215 1 3.3797059375 -3.0097312500 -4.8645769200
216 1 3.3137143750 -2.4494143750 -4.0669668560
217 1 3.9539843750 -3.1781165625 -5.6358775864
218 1 4.5391875000 -3.1535662500 -4.8500188720
219 1 5.0397478125 -2.7229212500 -6.4573903074
220 1 4.4623384375 -2.6191703125 -3.9928166560
221 1 5.0592590625 -3.3241284375 -5.7308274032
222 1 5.5952406250 -3.3881178125 -4.8613389200
223 1 5.6334568750 -2.8510209375 -4.0097319680
224 1 6.1503571875 -3.4272343750 -5.7162149568
225 1 2.7822343750 -5.7443095313 -3.1673856960
226 1 2.7933068750 -6.3681669688 -2.4815643440
227 1 3.9490528125 -5.8739249688 -3.2622072880
228 1 3.9174478125 -6.4434908750 -2.4650634960
229 1 5.0803559375 -6.0940177813 -3.2908312080
230 1 5.0057912500 -6.6104206375 -2.3939181600
231 1 6.1534478125 -6.3226380313 -3.2215509600
232 1 2.8407815625 -4.5813275000 -3.2494236640
233 1 2.7890606250 -5.1443050000 -2.4590796720
234 1 3.9447662500 -4.7899581250 -3.2522472000
235 1 3.8961090625 -5.3382215625 -2.4090331440
236 1 5.0102256250 -5.0229778125 -3.2287263680
237 1 4.9936706250 -5.5707346563 -2.3810309200
238 1 6.0781843750 -5.1964559375 -3.2207220320
239 1 6.1568475000 -5.7562366563 -2.4187730480
240 1 2.8203296875 -3.5030756250 -3.2532445040
241 1 2.7470281250 -4.0431690625 -2.4022981040
242 1 3.8822415625 -3.7156031250 -3.2096869280
243 1 3.8864206250 -4.2683815625 -2.3632607760
244 1 4.9507109375 -3.9037146875 -3.2234937600
245 1 5.0693237500 -4.4676731250 -2.4188766640
246 1 6.1322703125 -4.0378612500 -3.2628160320
247 1 6.2026559375 -4.6092909375 -2.4838438960
248 1 2.7408871875 -2.4097871875 -3.2297236720
249 1 2.7734731250 -2.9661400000 -2.3984902160
250 1 3.8533375000 -2.6256068750 -3.2630362160
251 1 3.9344731250 -3.1560656250 -2.3963272320
252 1 5.0432550000 -2.7530481250 -3.2523378640
253 1 5.0618928125 -3.3250153125 -2.4789739440
254 1 6.2105571875 -2.8677371875 -3.2254106560
255 1 6.1459093750 -3.4630587500 -2.4942832080
256 1 5.5621306250 -2.3070978125 -4.8782542320
257 1 6.1492284375 -2.3187346875 -5.6499641816
258 1 6.1253634375 -2.3041684375 -2.4232026320
259 1 2.7922184375 -5.7095776250 -6.4286445090
260 1 6.0834653125 -5.2010515625 -6.4515229218
261 1 4.9710821875 -3.9189796875 -6.4519073372
262 1 3.8581884375 -2.6354700000 -6.4672108505
263 1 -6.1318188125 -1.9745600000 -6.4491459708
264 1 -5.5885930938 -2.0276918750 -4.0457385280
265 1 -4.4840265625 -2.1405668750 -4.0752690880
266 1 -2.8261615625 -1.9022393750 -6.4378264409
267 1 -3.3730812500 -1.9902818750 -4.0267379440
268 1 -6.7127200831 -1.3300571875 -4.8571813280
269 1 -6.7161160753 -0.7450690625 -4.0871460720
270 1 -6.1535996563 -1.4157212500 -5.6695540816
271 1 -5.5815881250 -1.4770231250 -4.8875408160
272 1 -5.6376507188 -0.9376418750 -4.0472021040
273 1 -5.0019212500 -1.5684115625 -5.6740238168
274 1 -4.4722956250 -1.5354090625 -4.8048552480
275 1 -4.4823334375 -0.9584968750 -4.0262198640
276 1 -3.9387193750 -1.4819412500 -5.6388332328
277 1 -3.3461525000 -1.4382828125 -4.8566632480
278 1 -2.7629381250 -0.7640562500 -6.4652556684
279 1 -3.3143996875 -0.8674578125 -4.0688967040
280 1 -2.8070803125 -1.3249643750 -5.6652630840
281 1 -6.7008039500 -0.1832875000 -4.8712083440
282 1 -6.1269141250 -0.3023034375 -5.6251079984
283 1 -5.5183633438 -0.3693834375 -4.8650690960
284 1 -5.0145525000 0.1488875000 -6.4535091110
285 1 -5.5948469063 0.1788934375 -4.0674072240
286 1 -5.0109109375 -0.4537843750 -5.7188299656
287 1 -4.4580921875 -0.4055975000 -4.8515990160
288 1 -3.9248787500 0.2037393750 -6.4723495047
289 1 -4.4401800000 0.1587103125 -4.0123871280
290 1 -3.9199471875 -0.4164415625 -5.7223658616
291 1 -3.3970403125 -0.2822815625 -4.8307203920
292 1 -3.3192775000 0.2726065625 -4.0379025680
293 1 -2.8494487500 -0.2069643750 -5.6488995272
294 1 -6.6684209188 0.9921846875 -4.8378958000
295 1 -6.1490470313 1.3671715625 -6.4519154970
296 1 -6.6961861531 1.5336218750 -4.0139802240
297 1 -6.1683446250 0.7801812500 -5.7127593632
298 1 -5.6059368750 0.7623765625 -4.8428564160
299 1 -5.5386700938 1.3295331250 -4.0280590480
300 1 -5.0750750000 0.7136253125 -5.6706990384
301 1 -4.4714356250 0.6610309375 -4.9218895200
302 1 -4.4592612500 1.1915837500 -4.1134774880
303 1 -3.8943218750 0.7530106250 -5.6586238888
304 1 -3.3049800000 0.8319425000 -4.8864010400
305 1 -2.8497040625 1.4940887500 -6.4690680248
306 1 -2.7619840625 0.8936206250 -5.7357906096
307 1 -6.1545859688 -2.0067159375 -3.2508095280
308 1 -5.0296562500 -2.1282446875 -3.2261489200
309 1 -3.9368381250 -2.0222496875 -3.2311483920
310 1 -2.7844515625 -1.9196275000 -3.2349562800
311 1 -6.1877846563 -0.8656975000 -3.2300992800
312 1 -6.1479236563 -1.4489925000 -2.4503888800
313 1 -5.0521909375 -0.9814750000 -3.2623497600
314 1 -5.0182478125 -1.5288381250 -2.4654520560
315 1 -3.8850500000 -0.9327103125 -3.2722968960
316 1 -3.9028143750 -1.4705596875 -2.4041243360
317 1 -2.8094318750 -0.7340100000 -3.1878887120
318 1 -2.7769534375 -1.3471496875 -2.4614628400
319 1 -6.1724618750 0.2506093750 -3.2667275360
320 1 -6.1338277188 -0.3070737500 -2.4481870400
321 1 -5.0481462500 0.1602690625 -3.2663001200
322 1 -5.0305028125 -0.4022112500 -2.4770181920
323 1 -3.8816100000 0.2099609375 -3.2181704880
324 1 -3.9597625000 -0.3897009375 -2.4391076880
325 1 -2.7995284375 -0.1830053125 -2.3939699680
326 1 -6.1375848438 1.3240909375 -3.2420669280
327 1 -6.1477852500 0.7855159375 -2.4115328800
328 1 -5.0100106250 1.2682178125 -3.2204629920
329 1 -5.0251412500 0.7097284375 -2.4341470720
330 1 -2.7937234375 1.4699550000 -3.2669865760
331 1 -3.9003015625 0.8013856250 -2.5424776000
332 1 -2.7413171875 0.3635112500 -3.2423389200
333 1 -2.8109637500 0.9384481250 -2.4429285280
334 1 -2.2465215625 -0.6898006250 -4.0429408960
335 1 -2.2456481250 -0.1537384375 -4.9020341040
336 1 -6.6949247750 2.0745081250 -4.8764150480
337 1 -6.1478672188 1.9496603125 -5.7148446352
338 1 -5.6019714688 1.8546034375 -4.8883438400
339 1 -5.0190137500 1.8171396875 -5.6673431752
340 1 -4.4906243750 1.8355087500 -4.8139734560
341 1 -3.9195709375 1.8618731250 -5.5987066416
342 1 -3.3017415625 1.9208234375 -4.8670118960
343 1 -3.3883865625 1.3287806250 -4.0466063120
344 1 -2.7583290625 2.0394228125 -5.6689181384
345 1 -6.1666125313 1.9169265625 -2.4967958960
346 1 -5.0490600000 1.8461378125 -2.4106003360
347 1 -3.9355481250 1.4991546875 -3.2529077520
348 1 -3.8827118750 1.9409393750 -2.4719928160
349 1 -2.7452812500 2.0456443750 -2.4557769120
350 1 -6.7164399997 -1.8965956250 -4.0707358880
351 1 -0.5598062500 -2.2262175000 -2.5851932960
352 1 -2.2371287500 -1.7503418750 -4.0035279600
353 1 -2.2095281250 -1.2360618750 -4.9045208880
354 1 -2.2291200000 1.5371828125 -4.0172182240
355 1 1.6989568750 -1.7960293750 -2.3687135680
356 1 -1.6703753125 0.5241834375 -3.1939243440
357 1 -1.0720706250 -1.6351287500 -4.0946452800
358 1 -0.5910618750 -2.0957393750 -5.5849516176
359 1 -0.5389378125 -1.6118818750 -3.2280010560
360 1 0.0251012500 -2.0707321875 -4.8674393120
361 1 0.5728809375 -1.3452281250 -6.4380949358
362 1 0.0392375000 -1.4708150000 -4.0719533760
363 1 0.5794518750 -1.9217909375 -5.6638526112
364 1 1.1248128125 -1.8631093750 -4.8396313680
365 1 1.0964731250 -1.2904703125 -4.0550251120
366 1 1.7015771875 -1.8185640625 -5.6315334856
367 1 -1.7096934375 -0.5942600000 -6.4245328966
368 1 -1.6386225000 -1.2175853125 -5.7017657056
369 1 -1.1331306250 -1.0510409375 -4.8167581360
370 1 -1.1449690625 -0.4965828125 -4.0037351920
371 1 -0.5741978125 -1.0322553125 -5.6879251984
372 1 -0.0323709375 -0.9230353125 -4.8503685760
373 1 0.0154934375 -0.3513234375 -4.0552452960
374 1 0.5384406250 -0.7940084375 -5.6187472712
375 1 1.1480462500 -0.7378934375 -4.8939520560
376 1 1.6813537500 -0.1575009375 -6.4501345970
377 1 1.1287768750 -0.2006353125 -4.0452981600
378 1 1.7275250000 -0.7172400000 -5.6502012032
379 1 -1.6357603125 0.5118612500 -6.4757907954
380 1 -2.1823440625 0.3884109375 -4.0782221440
381 1 -1.6712084375 -0.0258940625 -5.6422525608
382 1 -1.0702700000 0.0287831250 -4.9071112880
383 1 -1.1024259375 0.5594971875 -4.0313618080
384 1 -0.5036375000 0.0955943750 -5.6938377864
385 1 0.0233812500 0.2307890625 -4.8174575440
386 1 -0.0433493750 0.8028234375 -4.0527714640
387 1 0.5644287500 0.3007178125 -5.6915284448
388 1 1.1093193750 0.3704181250 -4.8332201280
389 1 1.6489290625 0.4390568750 -5.7016141672
390 1 1.1336278125 0.9507165625 -4.0584444400
391 1 -2.2377737500 0.9784246875 -4.8303836400
392 1 -1.7192206250 1.1093328125 -5.7169817152
393 1 -1.1611612500 1.1159171875 -4.8846654720
394 1 -1.0632825000 1.6697706250 -4.0634568640
395 1 -0.5861303125 1.2577903125 -5.6332017032
396 1 0.0180331250 1.3396381250 -4.9117222000
397 1 0.0213118750 1.8912609375 -4.0635345760
398 1 0.6106000000 1.3976343750 -5.6739474000
399 1 1.1397015625 1.5115575000 -4.8383620720
400 1 1.6860031250 1.5617196875 -5.6989149704
401 1 -1.6244728125 -1.7983675000 -3.2746541600
402 1 -0.5354843750 -1.0430456250 -2.4004977760
403 1 0.5795190625 -1.3524171875 -3.1956469600
404 1 0.5402950000 -1.9281200000 -2.4051864000
405 1 1.6659946875 -1.2553446875 -3.2269519440
406 1 -1.6605793750 -1.2506818750 -2.4424234000
407 1 -0.5395021875 -0.5184053125 -3.2642018960
408 1 -0.5136753125 0.0529571875 -2.4313882960
409 1 0.5594703125 -0.1887296875 -3.2386605520
410 1 1.6805878125 -0.1566946875 -3.2428310960
411 1 -1.6705231250 1.0856156250 -2.3941124400
412 1 -1.6895506250 -0.6763631250 -3.2029518880
413 1 -0.5518915625 0.6398803125 -3.1903884480
414 1 -1.6127150000 -0.0756800000 -2.4644677040
415 1 0.5746546875 1.4273984375 -2.3854734560
416 1 0.5590806250 0.8875200000 -3.2902095120
417 1 1.6971025000 0.9993603125 -3.2601479200
418 1 1.6791096875 0.4302284375 -2.4714876880
419 1 -1.6330190625 1.6193128125 -3.2662353600
420 1 -0.5182575000 1.2228259375 -2.4487569280
421 1 0.5677881250 1.9724368750 -3.2411732400
422 1 1.1148959375 2.0994078125 -4.0719922320
423 1 1.6681850000 1.5508621875 -2.4375016400
424 1 2.2049325000 -1.2196815625 -4.0740256960
425 1 1.6755353125 2.1041109375 -3.2413027600
426 1 2.2188806250 2.0972712500 -4.0707358880
427 1 -2.1999471875 2.0859300000 -4.8534252480
428 1 -1.6480287500 2.1980121875 -5.7154119328
429 1 -1.6917678125 2.1902050000 -2.4921849840
430 1 0.5788740625 -0.7659778125 -2.4600899280
431 1 0.6005756250 0.3759543750 -2.3915997520
432 1 1.7090887500 -0.6944768750 -2.4049662160
433 1 -0.5482903125 1.8118587500 -3.2113318320
434 1 2.1979853125 0.4451843750 -4.8986277280
435 1 -0.5825559375 0.6903918750 -6.4328473035
436 1 0.5484515625 1.9873793750 -6.4401417404
437 1 2.2771859375 -1.7807912500 -4.8373259120
438 1 2.2835821875 -0.6252468750 -4.8262390000
439 1 2.2469515625 1.5392790625 -4.8870227360
440 1 6.7113862500 0.3868790625 -4.0877677680
441 1 2.8209746875 -1.8697475000 -5.6587935600
442 1 3.3973359375 -1.8738325000 -4.8423901440
443 1 3.9526943750 -1.4506990625 -6.4647752917
444 1 3.3798806250 -1.3359696875 -3.9915991680
445 1 3.9132015625 -2.0423656250 -5.7308416504
446 1 4.4511987500 -2.0887518750 -4.8635666640
447 1 4.5432053125 -1.5406093750 -4.0261032960
448 1 5.0181940625 -2.1476484375 -5.6957067600
449 1 5.6136903125 -1.7629059375 -4.0781962400
450 1 2.8078731250 -0.1530531250 -6.4659089155
451 1 2.8418565625 -0.1865393750 -3.2450458880
452 1 2.8088809375 -0.7518953125 -5.7125728544
453 1 3.3447146875 -0.7992087500 -4.8581786320
454 1 3.4074946875 -0.2392412500 -4.0411017120
455 1 3.8978425000 -0.8688015625 -5.7015273888
456 1 4.4464418750 -1.0078796875 -4.8954674400
457 1 4.4865931250 -0.4600462500 -4.0641821760
458 1 5.0372618750 -1.0258590625 -5.6496792376
459 1 5.6032090625 -1.1808740625 -4.8645769200
460 1 6.1827415625 -0.6311190625 -6.4670077761
461 1 5.5956706250 -0.6163378125 -4.0672388480
462 1 6.1624509375 -1.2096571875 -5.6706640680
463 1 2.2626465625 -0.0655481250 -4.0165317680
464 1 2.2862965625 0.9986481250 -4.0460234720
465 1 2.8027400000 0.3993759375 -5.6639860168
466 1 3.3532743750 0.3047625000 -4.8909471920
467 1 3.3397159375 0.8467640625 -4.0647650160
468 1 3.9382625000 0.2514693750 -5.6694064288
469 1 4.4925325000 0.1138962500 -4.8625693600
470 1 4.4634403125 0.6716331250 -4.0405706800
471 1 5.0446121875 0.1011440625 -5.7014496768
472 1 5.5729209375 -0.0517075000 -4.8445401760
473 1 5.6384287500 0.5339659375 -4.0755669840
474 1 6.1505587500 -0.0934846875 -5.6400908720
475 1 2.8102246875 1.5279915625 -5.6811202176
476 1 3.3877953125 1.4244690625 -4.8728662000
477 1 3.3420809375 1.9528181250 -4.0141874560
478 1 3.9326859375 1.3866290625 -5.7053223248
479 1 4.4710728125 1.2181765625 -4.8482314960
480 1 4.5060909375 1.8092115625 -4.0854105040
481 1 5.0505515625 1.2196278125 -5.6459684896
482 1 5.6083556250 1.0983275000 -4.8470010560
483 1 5.6089737500 1.6933803125 -4.1031417920
484 1 6.1845556250 0.9699590625 -5.6278512320
485 1 2.7525375000 -1.3101293750 -3.2793168800
486 1 2.8565437500 -1.8489462500 -2.4344967760
487 1 3.9549115625 -1.4705865625 -3.2487501600
488 1 3.9183481250 -2.0552656250 -2.4777046480
489 1 5.0975559375 -1.5719456250 -3.2003614880
490 1 4.9955921875 -2.1721853125 -2.4874316000
491 1 6.1766812500 -1.7512018750 -3.2478694240
492 1 2.7847068750 0.3765321875 -2.4679647440
493 1 2.7990984375 -0.7534003125 -2.4418923680
494 1 3.9645462500 -0.3080278125 -3.1926420960
495 1 3.8923600000 -0.9027984375 -2.4706069520
496 1 5.0539109375 -0.4430209375 -3.2389066400
497 1 5.0477162500 -0.9989437500 -2.4228529280
498 1 6.1605696875 -0.6823965625 -3.2720378560
499 1 6.1780653125 -1.2235246875 -2.3712262560
500 1 2.7716187500 2.1237162500 -3.2374301120
501 1 2.8084375000 0.9926818750 -3.1685643280
502 1 3.9013900000 0.8304643750 -3.2433362240
503 1 3.9499665625 0.2754015625 -2.4389004560
504 1 5.0578615625 0.6296678125 -3.2997421840
505 1 5.0667571875 0.1010903125 -2.3903822640
506 1 6.1738325000 0.4061753125 -3.2239211760
507 1 6.1656625000 -0.1601078125 -2.4125042800
508 1 3.9446050000 1.9244784375 -3.2866865680
509 1 3.9507459375 1.3916950000 -2.4284870480
510 1 5.0621884375 1.7178903125 -3.2548505520
511 1 5.0204515625 1.1492153125 -2.4288885600
512 1 6.1387471875 1.5166637500 -3.2561716560
513 1 6.1568206250 0.9748368750 -2.4367763280
514 1 6.1588900000 2.0551715625 -5.6953428088
515 1 6.1846765625 2.0893968750 -2.4535750720
516 1 2.8487768750 1.5701315625 -2.4232155840
517 1 3.9628128125 1.9642265625 -6.4728721697
518 1 -6.1530688750 6.3927696875 -5.6404276240
519 1 -5.5347476875 6.3876903125 -4.9155818960
520 1 -4.9742265625 6.2851353125 -5.6880935744
521 1 -4.4266215625 6.2307537500 -4.8353960640
522 1 -3.8775384375 6.3729359375 -5.6733904640
523 1 -3.3348112500 6.3411831250 -4.8291402480
524 1 -2.8045809375 6.5433771875 -5.7020843248
525 1 -6.1722159688 6.3841696875 -2.4390170240
526 1 -4.9980646875 6.2799484375 -2.4583025520
527 1 -3.9050853125 6.3553462500 -2.4127762720
528 1 -2.8096200000 6.5412943750 -2.4513861840
529 1 -2.9759493750 2.5803090625 -3.2313426720
530 1 -6.1732976875 2.5553153125 -6.4461430496
531 1 -6.6784958188 2.5969043750 -3.9888662960
532 1 -5.5604536250 2.3858146875 -4.0018053440
533 1 -4.3628068750 2.3804396875 -3.9652029920
534 1 -6.6964335375 3.1119234375 -4.8957394320
535 1 -6.1098498438 3.1258581250 -5.6661205064
536 1 -5.5706741875 2.9229115625 -4.8227290080
537 1 -5.5821914688 3.5062065625 -4.0505048640
538 1 -5.0398821875 2.9444384375 -5.7045516808
539 1 -4.5118690625 2.9223606250 -4.8351758800
540 1 -3.8719350000 3.4944487500 -6.4422520098
541 1 -4.4391318750 3.5197784375 -4.0398194640
542 1 -3.9410171875 2.9349112500 -5.6455281216
543 1 -3.3788996875 3.0672034375 -4.8314068480
544 1 -3.3607187500 3.6914693750 -4.0770046560
545 1 -2.8127912500 3.1505159375 -5.5981121448
546 1 -6.1743417813 4.2124412500 -5.6834813672
547 1 -5.6421952813 4.0910603125 -4.8063576800
548 1 -5.5647052500 4.7010421875 -4.1155498080
549 1 -5.0996118750 4.0499953125 -5.6556747184
550 1 -4.5111165625 4.0159446875 -4.9010756560
551 1 -4.4703740625 4.5783578125 -4.0416716000
552 1 -3.9363543750 4.0761581250 -5.6966898168
553 1 -3.3879028125 4.2097806250 -4.9011015600
554 1 -3.3816409375 4.7453053125 -3.9825586720
555 1 -2.7850562500 4.2175878125 -5.6623139136
556 1 -6.1607336250 5.8327350000 -6.4477847156
557 1 -6.2109334375 5.2756700000 -5.6360122872
558 1 -5.6168991875 5.2681181250 -4.8915559360
559 1 -5.1077415625 5.6991796875 -6.4526582942
560 1 -5.6223709375 5.8390775000 -4.0871460720
561 1 -5.0244290625 5.1498546875 -5.6339632808
562 1 -4.4369953125 5.1210984375 -4.8674004560
563 1 -4.5333690625 5.6736215625 -4.0488988160
564 1 -3.9102453125 5.2670162500 -5.7181525760
565 1 -3.3533684375 5.2572471875 -4.8800675120
566 1 -3.3647903125 5.7875043750 -4.0019219120
567 1 -2.8050512500 5.3733471875 -5.7197832328
568 1 -6.0906893125 2.5330896875 -3.1880182320
569 1 -4.9009384375 2.3962421875 -3.2642666560
570 1 -3.3922565625 2.4755234375 -4.0459975680
571 1 -6.1706948438 3.6994781250 -3.2664425920
572 1 -6.1358540938 3.1278603125 -2.4611260880
573 1 -5.0415484375 3.5198053125 -3.2639169520
574 1 -5.0467084375 2.9319684375 -2.4297433920
575 1 -3.8888931250 3.3312100000 -3.2376502960
576 1 -3.9327262500 2.8691750000 -2.4576031440
577 1 -2.7872465625 3.6586818750 -3.2564436480
578 1 -2.7438300000 3.1340012500 -2.3605538080
579 1 -6.1366119688 4.7405484375 -3.3098836000
580 1 -6.1441705625 4.2301653125 -2.3857065920
581 1 -5.0581840625 4.6086728125 -3.2375596320
582 1 -5.0604146875 4.0128003125 -2.4241351760
583 1 -3.9447662500 4.5951681250 -3.1726053520
584 1 -3.9307106250 3.9872825000 -2.5148639360
585 1 -2.7556146875 4.7544159375 -3.2419374080
586 1 -2.8389003125 4.1786996875 -2.4247439200
587 1 -6.1595591875 5.8167040625 -3.2199060560
588 1 -6.2071964688 5.2646781250 -2.4055102000
589 1 -5.0865103125 5.6975403125 -3.2193102640
590 1 -5.0479446875 5.1322246875 -2.4033342640
591 1 -3.9658362500 5.8029575000 -3.2647199760
592 1 -3.8957462500 5.2417806250 -2.4909674960
593 1 -2.7991790625 5.9643015625 -3.1998175040
594 1 -2.8013693750 5.3344187500 -2.5061731440
595 1 -2.3026365625 2.6263593750 -4.0192775920
596 1 -2.2688815625 4.3977309375 -4.8079507760
597 1 -2.2755196875 5.5358468750 -4.8613907280
598 1 -2.2455137500 6.0672865625 -3.9828177120
599 1 -2.2677931250 3.7616937500 -4.1254451360
600 1 -6.6816161406 5.9828453125 -4.1058617120
601 1 -2.8088943750 2.6156362500 -6.4520851682
602 1 -3.9304284375 4.6604071875 -6.4391461202
603 1 -2.7786600000 4.7807534375 -6.4652648125
604 1 -2.7908881250 5.9562121875 -6.4742406133
605 1 -1.6614931250 6.6126071875 -2.5020285040
606 1 -2.2277225000 6.5848990625 -4.9025392320
607 1 -2.2048384375 3.1773371875 -4.8611316880
608 1 -1.6760459375 6.6389312500 -5.7182976384
609 1 1.1240468750 2.6336290625 -4.9213066800
610 1 -1.7510137500 2.8007109375 -6.4735699846
611 1 -1.1469443750 2.2588706250 -4.8007624160
612 1 -0.6287137500 4.0796384375 -6.4532821920
613 1 -1.1385728125 2.8213778125 -3.9845014720
614 1 -0.6096862500 2.3655643750 -5.6927433424
615 1 -0.0538843750 2.4467268750 -4.8616756720
616 1 0.0475821875 2.9931359375 -4.0160654960
617 1 0.5180828125 2.5489862500 -5.6260638560
618 1 1.7256034375 2.6643875000 -5.6533925760
619 1 1.0743281250 3.7491968750 -4.8447733120
620 1 -1.6427881250 3.3411403125 -5.6360899992
621 1 -1.0643171875 3.3447012500 -4.8582433920
622 1 -1.1782671875 3.9041312500 -4.0530434560
623 1 -0.5221543750 3.4926078125 -5.7173948840
624 1 -0.0356631250 4.1220606250 -3.9771706400
625 1 -0.0181540625 3.5681803125 -4.7996485440
626 1 0.5216437500 3.6443575000 -5.6942652024
627 1 1.1344071875 4.2987503125 -4.0161820640
628 1 1.6260181250 3.8120037500 -5.6634342616
629 1 -2.2382843750 4.9679378125 -4.0580688320
630 1 -1.6922381250 4.4257346875 -5.5948352888
631 1 -1.0930196875 4.4715565625 -4.8489050000
632 1 -1.0904128125 5.0760021875 -4.1224661760
633 1 -0.5415178125 4.6472250000 -5.6326408816
634 1 0.0497590625 4.6432475000 -4.8674134080