ITEM: TIMESTEP
0
ITEM: NUMBER OF ATOMS
6
ITEM: BOX BOUNDS pp pp pp
-6.7187500000 6.7187500000
-6.7187500000 6.7187500000
-6.4759998300 6.4759998300
ITEM: ATOMS x y z
-2.2395878125 -3.3593750000 -1.6189999575
-1.6796875000 0.0000000000 0.8094999788
3.3593750000 -2.2395878125 -1.6189999575
-0.5599003125 2.7994746875 0.0000000000
0.0000000000 -1.6796875000 5.6664998513
0.0000000000 5.0390625000 2.4284999363
