ITEM: TIMESTEP
0
ITEM: NUMBER OF ATOMS
6
ITEM: BOX BOUNDS pp pp pp
-6.7187500000 6.7187500000
-6.7187500000 6.7187500000
-6.4759998300 6.4759998300
ITEM: ATOMS x y z
-0.5599003125 0.0000000000 -2.4284999363
1.1197871875 3.3593750000 -4.8569998725
1.1197871875 -0.5599003125 -0.8094999788
0.0000000000 2.2395878125 -1.6189999575
0.0000000000 3.9192753125 -0.8094999788
-1.6796875000 -1.1197871875 4.0474998938
