ITEM: TIMESTEP
0
ITEM: NUMBER OF ATOMS
6
ITEM: BOX BOUNDS pp pp pp
-6.7187500000 6.7187500000
-6.7187500000 6.7187500000
-6.4759998300 6.4759998300
ITEM: ATOMS x y z
-5.5989587813 -5.0390625000 -4.0474998938
6.1588496875 -5.5989587813 -5.6664998513
2.7994746875 -3.9192753125 -3.2379999150
5.0390625000 2.7994746875 -3.2379999150
-6.1588537188 5.0390625000 0.0000000000
-5.5989587813 -6.1588537188 5.6664998513
