ITEM: TIMESTEP
0
ITEM: NUMBER OF ATOMS
6
ITEM: BOX BOUNDS pp pp pp
-6.7187500000 6.7187500000
-6.7187500000 6.7187500000
-6.4759998300 6.4759998300
ITEM: ATOMS x y z
-5.0390625000 -3.3593750000 -5.6664998513
-3.3593750000 -2.7994746875 -4.0474998938
-3.9192753125 -4.4791621875 -2.4284999363
5.5989628125 -0.5599003125 -4.0474998938
-4.4791621875 5.0390625000 -4.0474998938
-5.5989587813 -2.7994746875 -0.8094999788
