ITEM: TIMESTEP
0
ITEM: NUMBER OF ATOMS
6
ITEM: BOX BOUNDS pp pp pp
-6.7187500000 6.7187500000
-6.7187500000 6.7187500000
-6.4759998300 6.4759998300
ITEM: ATOMS x y z
-6.1588537188 -6.7187500000 -5.6664998513
-5.0390625000 -5.5989587813 -5.6664998513
-6.1588537188 -4.4791621875 -5.6664998513
-6.1588537188 3.3593750000 -2.4284999363
-6.1588537188 -2.7994746875 3.2379999150
2.2395878125 -4.4791621875 4.8569998725
