ITEM: TIMESTEP
0
ITEM: NUMBER OF ATOMS
6
ITEM: BOX BOUNDS pp pp pp
-6.7187500000 6.7187500000
-6.7187500000 6.7187500000
-6.4759998300 6.4759998300
ITEM: ATOMS x y z
-5.0390625000 -6.1588537188 -6.4759998300
5.5989628125 -4.4791621875 -4.8569998725
5.0390625000 -3.3593750000 -5.6664998513
5.5989628125 -0.5599003125 -0.8094999788
1.6796875000 4.4791621875 0.8094999788
6.1588496875 -3.9192753125 3.2379999150
