ITEM: TIMESTEP
0
ITEM: NUMBER OF ATOMS
6
ITEM: BOX BOUNDS pp pp pp
-6.7187500000 6.7187500000
-6.7187500000 6.7187500000
-6.4759998300 6.4759998300
ITEM: ATOMS x y z
-2.7994746875 -5.0390625000 -3.2379999150
0.0000000000 -6.7187500000 -4.8569998725
1.1197871875 -5.5989587813 4.8569998725
5.5989628125 -6.7187500000 4.8569998725
1.6796875000 -1.6796875000 3.2379999150
-4.4791621875 5.0390625000 5.6664998513
