ITEM: TIMESTEP
0
ITEM: NUMBER OF ATOMS
6
ITEM: BOX BOUNDS pp pp pp
-6.7187500000 6.7187500000
-6.7187500000 6.7187500000
-6.4759998300 6.4759998300
ITEM: ATOMS x y z
0.5599003125 -1.1197871875 -5.6664998513
-2.7994746875 -2.7994746875 0.0000000000
-1.6796875000 -1.6796875000 0.0000000000
3.3593750000 -0.5599003125 -0.8094999788
-1.1197871875 0.5599003125 2.4284999363
-0.5599003125 5.0390625000 3.2379999150
