ITEM: TIMESTEP
0
ITEM: NUMBER OF ATOMS
6
ITEM: BOX BOUNDS pp pp pp
-6.7187500000 6.7187500000
-6.7187500000 6.7187500000
-6.4759998300 6.4759998300
ITEM: ATOMS x y z
-3.9192753125 -5.5989587813 -5.6664998513
1.6796875000 -5.0390625000 -6.4759998300
2.7994746875 1.6796875000 -6.4759998300
1.1197871875 -1.6796875000 -0.8094999788
-3.3593750000 -2.7994746875 2.4284999363
-1.1197871875 -3.3593750000 4.8569998725
