ITEM: TIMESTEP
0
ITEM: NUMBER OF ATOMS
6
ITEM: BOX BOUNDS pp pp pp
-6.7187500000 6.7187500000
-6.7187500000 6.7187500000
-6.4759998300 6.4759998300
ITEM: ATOMS x y z
-3.3593750000 -5.0390625000 -4.0474998938
2.2395878125 -3.9192753125 -4.0474998938
4.4791621875 3.9192753125 -4.0474998938
-6.7187500000 -6.7187500000 4.8569998725
-5.5989587813 2.7994746875 2.4284999363
-6.1588537188 5.0390625000 3.2379999150
