ITEM: TIMESTEP
0
ITEM: NUMBER OF ATOMS
6
ITEM: BOX BOUNDS pp pp pp
-6.7187500000 6.7187500000
-6.7187500000 6.7187500000
-6.4759998300 6.4759998300
ITEM: ATOMS x y z
-6.1588537188 -5.5989587813 -5.6664998513
-6.7187500000 -3.3593750000 -4.8569998725
-0.5599003125 -5.5989587813 -2.4284999363
-6.1588537188 0.5599003125 -3.2379999150
-4.4791621875 -3.9192753125 -0.8094999788
-6.1588537188 4.4791621875 0.8094999788
