ITEM: TIMESTEP
0
ITEM: NUMBER OF ATOMS
6
ITEM: BOX BOUNDS pp pp pp
-6.7187500000 6.7187500000
-6.7187500000 6.7187500000
-6.4759998300 6.4759998300
ITEM: ATOMS x y z
-0.5599003125 -5.5989587813 -5.6664998513
1.6796875000 -3.9192753125 -6.4759998300
3.9192753125 2.2395878125 -5.6664998513
-2.2395878125 -3.3593750000 1.6189999575
-3.3593750000 -6.1588537188 5.6664998513
1.1197871875 0.5599003125 2.4284999363
