ITEM: TIMESTEP
0
ITEM: NUMBER OF ATOMS
6
ITEM: BOX BOUNDS pp pp pp
-6.7187500000 6.7187500000
-6.7187500000 6.7187500000
-6.4759998300 6.4759998300
ITEM: ATOMS x y z
-1.6796875000 -5.0390625000 -6.4759998300
2.2395878125 -2.7994746875 -4.0474998938
3.9192753125 3.3593750000 -5.6664998513
6.1588496875 -6.7187500000 4.0474998938
-6.1588537188 2.7994746875 3.2379999150
-5.0390625000 5.5989628125 4.0474998938
