ITEM: TIMESTEP
0
ITEM: NUMBER OF ATOMS
6
ITEM: BOX BOUNDS pp pp pp
-0.041667 1.083333
-0.041667 1.083333
0 1.1875
ITEM: ATOMS x y z
0.541667 0.458333 0.5
0.458333 0.5 0.5625
0.583333 0.5 0.625
0.5 0.583333 0.625
0.5 0.458333 0.6875
0.583333 0.541667 0.6875
