ITEM: TIMESTEP
0
ITEM: NUMBER OF ATOMS
6
ITEM: BOX BOUNDS pp pp pp
-6.7187500000 6.7187500000
-6.7187500000 6.7187500000
-6.4759998300 6.4759998300
ITEM: ATOMS x y z
1.1197871875 -6.7187500000 -4.8569998725
-4.4791621875 -5.0390625000 -0.8094999788
-2.2395878125 -4.4791621875 -1.6189999575
-6.1588537188 5.5989628125 0.8094999788
5.5989628125 2.2395878125 -1.6189999575
-6.7187500000 -3.3593750000 4.8569998725
