ITEM: TIMESTEP
0
ITEM: NUMBER OF ATOMS
6
ITEM: BOX BOUNDS pp pp pp
-6.7187500000 6.7187500000
-6.7187500000 6.7187500000
-6.4759998300 6.4759998300
ITEM: ATOMS x y z
6.1588496875 -5.5989587813 -5.6664998513
2.7994746875 -1.6796875000 -6.4759998300
0.0000000000 -4.4791621875 4.8569998725
3.3593750000 -3.9192753125 5.6664998513
5.5989628125 -2.2395878125 4.8569998725
5.5989628125 0.0000000000 4.8569998725
