ITEM: TIMESTEP
0
ITEM: NUMBER OF ATOMS
6
ITEM: BOX BOUNDS pp pp pp
-6.7187500000 6.7187500000
-6.7187500000 6.7187500000
-6.4759998300 6.4759998300
ITEM: ATOMS x y z
-0.5599003125 -5.5989587813 -5.6664998513
2.7994746875 -3.9192753125 -6.4759998300
3.9192753125 3.3593750000 -5.6664998513
-1.6796875000 -3.3593750000 0.8094999788
1.6796875000 0.5599003125 0.0000000000
-4.4791621875 -6.7187500000 4.8569998725
