ITEM: TIMESTEP
0
ITEM: NUMBER OF ATOMS
6
ITEM: BOX BOUNDS pp pp pp
-6.7187500000 6.7187500000
-6.7187500000 6.7187500000
-6.4759998300 6.4759998300
ITEM: ATOMS x y z
-6.1588537188 -5.0390625000 -6.4759998300
-4.4791621875 -5.5989587813 -4.8569998725
6.1588496875 -6.1588537188 -3.2379999150
-6.1588537188 2.7994746875 -3.2379999150
-6.1588537188 -3.3593750000 4.0474998938
2.2395878125 -5.5989587813 4.8569998725
