ITEM: TIMESTEP
0
ITEM: NUMBER OF ATOMS
6
ITEM: BOX BOUNDS pp pp pp
-6.7187500000 6.7187500000
-6.7187500000 6.7187500000
-6.4759998300 6.4759998300
ITEM: ATOMS x y z
-6.1588537188 -3.3593750000 -5.6664998513
1.6796875000 -6.7187500000 -5.6664998513
4.4791621875 1.6796875000 -4.0474998938
-4.4791621875 -6.1588537188 -0.8094999788
-6.7187500000 -6.7187500000 1.6189999575
-3.9192753125 -4.4791621875 0.8094999788
