ITEM: TIMESTEP
0
ITEM: NUMBER OF ATOMS
6
ITEM: BOX BOUNDS pp pp pp
-6.7187500000 6.7187500000
-6.7187500000 6.7187500000
-6.4759998300 6.4759998300
ITEM: ATOMS x y z
-3.3593750000 -6.1588537188 -4.0474998938
-0.5599003125 -5.5989587813 -5.6664998513
2.2395878125 -3.3593750000 -4.8569998725
-6.1588537188 4.4791621875 -5.6664998513
-3.9192753125 -5.5989587813 4.0474998938
-2.2395878125 -5.0390625000 5.6664998513
