ITEM: TIMESTEP
0
ITEM: NUMBER OF ATOMS
6
ITEM: BOX BOUNDS pp pp pp
-6.7187500000 6.7187500000
-6.7187500000 6.7187500000
-6.4759998300 6.4759998300
ITEM: ATOMS x y z
0.0000000000 -3.3593750000 -4.8569998725
-3.9192753125 1.6796875000 -3.2379999150
-0.5599003125 1.1197871875 0.8094999788
0.5599003125 2.7994746875 0.0000000000
2.7994746875 2.2395878125 0.8094999788
0.0000000000 3.9192753125 2.4284999363
