ITEM: TIMESTEP
0
ITEM: NUMBER OF ATOMS
6
ITEM: BOX BOUNDS pp pp pp
-6.7187500000 6.7187500000
-6.7187500000 6.7187500000
-6.4759998300 6.4759998300
ITEM: ATOMS x y z
-2.2395878125 -2.7994746875 -0.8094999788
-1.6796875000 -0.5599003125 0.0000000000
-0.5599003125 1.1197871875 0.8094999788
3.9192753125 0.5599003125 0.0000000000
1.6796875000 -1.1197871875 4.0474998938
-2.2395878125 5.5989628125 4.8569998725
