ITEM: TIMESTEP
0
ITEM: NUMBER OF ATOMS
6
ITEM: BOX BOUNDS pp pp pp
-6.7187500000 6.7187500000
-6.7187500000 6.7187500000
-6.4759998300 6.4759998300
ITEM: ATOMS x y z
3.9192753125 0.5599003125 -6.4759998300
5.0390625000 -0.5599003125 -3.2379999150
-2.7994746875 -5.5989587813 0.8094999788
-3.3593750000 -3.3593750000 1.6189999575
-1.6796875000 5.0390625000 0.0000000000
2.7994746875 6.1588496875 0.0000000000
