ITEM: TIMESTEP
0
ITEM: NUMBER OF ATOMS
6
ITEM: BOX BOUNDS pp pp pp
-6.7187500000 6.7187500000
-6.7187500000 6.7187500000
-6.4759998300 6.4759998300
ITEM: ATOMS x y z
-2.7994746875 -6.1588537188 -3.2379999150
2.2395878125 -1.6796875000 -4.0474998938
-4.4791621875 -6.7187500000 -1.6189999575
6.1588496875 -5.5989587813 0.8094999788
-6.1588537188 -6.7187500000 4.0474998938
-5.0390625000 -6.7187500000 4.0474998938
