ITEM: TIMESTEP
0
ITEM: NUMBER OF ATOMS
6
ITEM: BOX BOUNDS pp pp pp
-6.7187500000 6.7187500000
-6.7187500000 6.7187500000
-6.4759998300 6.4759998300
ITEM: ATOMS x y z
-2.7994746875 -2.7994746875 -3.2379999150
3.9192753125 -0.5599003125 -3.2379999150
-5.5989587813 -3.3593750000 1.6189999575
-3.3593750000 3.9192753125 -0.8094999788
-4.4791621875 -6.1588537188 2.4284999363
-3.3593750000 -3.9192753125 2.4284999363
