ITEM: TIMESTEP
0
ITEM: NUMBER OF ATOMS
6
ITEM: BOX BOUNDS pp pp pp
-6.7187500000 6.7187500000
-6.7187500000 6.7187500000
-6.4759998300 6.4759998300
ITEM: ATOMS x y z
-2.2395878125 -2.2395878125 -4.8569998725
3.9192753125 -1.6796875000 -3.2379999150
-5.5989587813 -3.3593750000 1.6189999575
-3.3593750000 4.4791621875 -1.6189999575
-4.4791621875 -3.9192753125 2.4284999363
-5.0390625000 6.1588496875 3.2379999150
