ITEM: TIMESTEP
0
ITEM: NUMBER OF ATOMS
6
ITEM: BOX BOUNDS pp pp pp
-6.7187500000 6.7187500000
-6.7187500000 6.7187500000
-6.4759998300 6.4759998300
ITEM: ATOMS x y z
-2.2395878125 -3.3593750000 -1.6189999575
-1.6796875000 -1.6796875000 0.0000000000
-1.6796875000 0.5599003125 0.0000000000
-3.3593750000 -6.1588537188 2.4284999363
2.2395878125 0.5599003125 2.4284999363
3.9192753125 0.5599003125 3.2379999150
