ITEM: TIMESTEP
0
ITEM: NUMBER OF ATOMS
6
ITEM: BOX BOUNDS pp pp pp
-6.7187500000 6.7187500000
-6.7187500000 6.7187500000
-6.4759998300 6.4759998300
ITEM: ATOMS x y z
0.5599003125 -5.5989587813 0.8094999788
4.4791621875 1.6796875000 -0.8094999788
-5.0390625000 -3.9192753125 3.2379999150
6.1588496875 -2.7994746875 3.2379999150
-6.1588537188 6.1588496875 3.2379999150
5.5989628125 6.1588496875 5.6664998513
