ITEM: TIMESTEP
0
ITEM: NUMBER OF ATOMS
6
ITEM: BOX BOUNDS pp pp pp
-6.7187500000 6.7187500000
-6.7187500000 6.7187500000
-6.4759998300 6.4759998300
ITEM: ATOMS x y z
-5.0390625000 -5.5989587813 -5.6664998513
-6.7187500000 -2.7994746875 -4.0474998938
-0.5599003125 -3.9192753125 -3.2379999150
-6.1588537188 0.0000000000 -2.4284999363
-4.4791621875 -4.4791621875 -1.6189999575
-5.5989587813 4.4791621875 1.6189999575
