ITEM: TIMESTEP
0
ITEM: NUMBER OF ATOMS
6
ITEM: BOX BOUNDS pp pp pp
-6.7187500000 6.7187500000
-6.7187500000 6.7187500000
-6.4759998300 6.4759998300
ITEM: ATOMS x y z
-2.7994746875 -2.7994746875 -3.2379999150
4.4791621875 -1.1197871875 -4.8569998725
-5.0390625000 -6.7187500000 0.8094999788
-6.7187500000 -4.4791621875 1.6189999575
-3.9192753125 -3.3593750000 0.8094999788
-3.3593750000 3.3593750000 -1.6189999575
