ITEM: TIMESTEP
0
ITEM: NUMBER OF ATOMS
6
ITEM: BOX BOUNDS pp pp pp
-6.7187500000 6.7187500000
-6.7187500000 6.7187500000
-6.4759998300 6.4759998300
ITEM: ATOMS x y z
5.0390625000 -3.9192753125 -6.4759998300
5.5989628125 -4.4791621875 -4.8569998725
5.0390625000 -2.7994746875 -3.2379999150
4.4791621875 -1.6796875000 -0.8094999788
-6.7187500000 -5.0390625000 5.6664998513
2.7994746875 3.3593750000 4.0474998938
