ITEM: TIMESTEP
0
ITEM: NUMBER OF ATOMS
6
ITEM: BOX BOUNDS pp pp pp
-6.7187500000 6.7187500000
-6.7187500000 6.7187500000
-6.4759998300 6.4759998300
ITEM: ATOMS x y z
-2.7994746875 -5.5989587813 -5.6664998513
-0.5599003125 -6.7187500000 -5.6664998513
2.7994746875 -2.7994746875 -3.2379999150
-3.9192753125 5.0390625000 -6.4759998300
-3.3593750000 -6.1588537188 2.4284999363
-2.2395878125 6.1588496875 5.6664998513
