ITEM: TIMESTEP
0
ITEM: NUMBER OF ATOMS
6
ITEM: BOX BOUNDS pp pp pp
-6.7187500000 6.7187500000
-6.7187500000 6.7187500000
-6.4759998300 6.4759998300
ITEM: ATOMS x y z
-1.1197871875 -3.3593750000 -1.6189999575
3.3593750000 -3.3593750000 -1.6189999575
-1.6796875000 0.5599003125 0.0000000000
-0.5599003125 1.6796875000 0.0000000000
0.0000000000 5.5989628125 1.6189999575
0.0000000000 -1.6796875000 5.6664998513
