ITEM: TIMESTEP
0
ITEM: NUMBER OF ATOMS
6
ITEM: BOX BOUNDS pp pp pp
-6.7187500000 6.7187500000
-6.7187500000 6.7187500000
-6.4759998300 6.4759998300
ITEM: ATOMS x y z
-2.7994746875 -5.0390625000 -6.4759998300
-1.6796875000 -6.7187500000 -5.6664998513
3.9192753125 -2.7994746875 -3.2379999150
-3.9192753125 -5.5989587813 0.8094999788
-3.3593750000 -6.7187500000 4.8569998725
-5.0390625000 5.5989628125 4.0474998938
