ITEM: TIMESTEP
0
ITEM: NUMBER OF ATOMS
6
ITEM: BOX BOUNDS pp pp pp
-6.7187500000 6.7187500000
-6.7187500000 6.7187500000
-6.4759998300 6.4759998300
ITEM: ATOMS x y z
3.3593750000 -2.7994746875 -4.0474998938
-6.1588537188 6.1588496875 -6.4759998300
-2.2395878125 6.1588496875 -4.0474998938
-3.3593750000 -5.5989587813 -1.6189999575
-3.3593750000 -6.1588537188 5.6664998513
-6.1588537188 5.0390625000 3.2379999150
