ITEM: TIMESTEP
0
ITEM: NUMBER OF ATOMS
6
ITEM: BOX BOUNDS pp pp pp
-6.7187500000 6.7187500000
-6.7187500000 6.7187500000
-6.4759998300 6.4759998300
ITEM: ATOMS x y z
-6.7187500000 1.6796875000 -0.8094999788
-5.0390625000 -5.5989587813 4.0474998938
-6.7187500000 -4.4791621875 4.8569998725
0.5599003125 -4.4791621875 4.0474998938
5.5989628125 -6.1588537188 5.6664998513
-6.1588537188 5.5989628125 4.0474998938
