ITEM: TIMESTEP
0
ITEM: NUMBER OF ATOMS
6
ITEM: BOX BOUNDS pp pp pp
-6.7187500000 6.7187500000
-6.7187500000 6.7187500000
-6.4759998300 6.4759998300
ITEM: ATOMS x y z
6.1588496875 -4.4791621875 -5.6664998513
5.0390625000 -2.7994746875 -6.4759998300
5.0390625000 -1.6796875000 0.0000000000
-6.7187500000 -5.5989587813 4.8569998725
5.5989628125 -4.4791621875 4.8569998725
3.9192753125 3.9192753125 3.2379999150
