ITEM: TIMESTEP
0
ITEM: NUMBER OF ATOMS
6
ITEM: BOX BOUNDS pp pp pp
-6.7187500000 6.7187500000
-6.7187500000 6.7187500000
-6.4759998300 6.4759998300
ITEM: ATOMS x y z
-6.7187500000 -5.5989587813 -4.8569998725
-5.0390625000 -5.0390625000 -3.2379999150
0.5599003125 -6.7187500000 -2.4284999363
6.1588496875 1.1197871875 -2.4284999363
-3.3593750000 -5.0390625000 -0.8094999788
-6.1588537188 5.5989628125 0.8094999788
