ITEM: TIMESTEP
0
ITEM: NUMBER OF ATOMS
6
ITEM: BOX BOUNDS pp pp pp
-6.7187500000 6.7187500000
-6.7187500000 6.7187500000
-6.4759998300 6.4759998300
ITEM: ATOMS x y z
6.1588496875 -6.1588537188 -6.4759998300
-6.7187500000 1.1197871875 -1.6189999575
-5.5989587813 -5.5989587813 4.8569998725
1.6796875000 -4.4791621875 4.0474998938
6.1588496875 -4.4791621875 4.0474998938
-6.1588537188 6.1588496875 3.2379999150
