ITEM: TIMESTEP
0
ITEM: NUMBER OF ATOMS
6
ITEM: BOX BOUNDS pp pp pp
-6.7187500000 6.7187500000
-6.7187500000 6.7187500000
-6.4759998300 6.4759998300
ITEM: ATOMS x y z
5.5989628125 1.6796875000 -4.0474998938
1.6796875000 -5.5989587813 0.8094999788
-6.1588537188 -6.1588537188 3.2379999150
-4.4791621875 -5.5989587813 4.8569998725
5.5989628125 -6.1588537188 5.6664998513
4.4791621875 -4.4791621875 4.8569998725
