ITEM: TIMESTEP
0
ITEM: NUMBER OF ATOMS
6
ITEM: BOX BOUNDS pp pp pp
-6.7187500000 6.7187500000
-6.7187500000 6.7187500000
-6.4759998300 6.4759998300
ITEM: ATOMS x y z
-2.7994746875 -2.7994746875 -6.4759998300
2.2395878125 -2.2395878125 -4.8569998725
-6.1588537188 -2.7994746875 0.0000000000
-2.2395878125 4.4791621875 -1.6189999575
-4.4791621875 -3.9192753125 2.4284999363
-4.4791621875 -6.7187500000 4.8569998725
