ITEM: TIMESTEP
0
ITEM: NUMBER OF ATOMS
6
ITEM: BOX BOUNDS pp pp pp
-6.7187500000 6.7187500000
-6.7187500000 6.7187500000
-6.4759998300 6.4759998300
ITEM: ATOMS x y z
4.4791621875 -4.4791621875 -4.8569998725
3.9192753125 -2.7994746875 -6.4759998300
2.7994746875 -5.0390625000 -3.2379999150
5.5989628125 -2.2395878125 -4.8569998725
-6.7187500000 -6.1588537188 5.6664998513
5.5989628125 2.2395878125 4.8569998725
