ITEM: TIMESTEP
0
ITEM: NUMBER OF ATOMS
6
ITEM: BOX BOUNDS pp pp pp
-6.7187500000 6.7187500000
-6.7187500000 6.7187500000
-6.4759998300 6.4759998300
ITEM: ATOMS x y z
-2.7994746875 -1.6796875000 -3.2379999150
4.4791621875 0.0000000000 -4.8569998725
-3.9192753125 3.3593750000 -2.4284999363
-4.4791621875 -5.0390625000 -0.8094999788
-6.1588537188 -4.4791621875 0.8094999788
-4.4791621875 -3.3593750000 1.6189999575
