ITEM: TIMESTEP
0
ITEM: NUMBER OF ATOMS
6
ITEM: BOX BOUNDS pp pp pp
-6.7187500000 6.7187500000
-6.7187500000 6.7187500000
-6.4759998300 6.4759998300
ITEM: ATOMS x y z
5.0390625000 1.6796875000 -3.2379999150
0.5599003125 6.1588496875 0.0000000000
-6.1588537188 -6.7187500000 4.0474998938
-5.0390625000 -6.1588537188 3.2379999150
5.5989628125 -6.7187500000 4.8569998725
5.0390625000 -3.3593750000 4.0474998938
