ITEM: TIMESTEP
0
ITEM: NUMBER OF ATOMS
6
ITEM: BOX BOUNDS pp pp pp
-6.7187500000 6.7187500000
-6.7187500000 6.7187500000
-6.4759998300 6.4759998300
ITEM: ATOMS x y z
-5.0390625000 -5.5989587813 -5.6664998513
-2.7994746875 -5.0390625000 -3.2379999150
2.7994746875 -3.3593750000 -2.4284999363
-6.1588537188 6.1588496875 -6.4759998300
-1.6796875000 5.0390625000 -3.2379999150
-6.7187500000 3.9192753125 2.4284999363
