ITEM: TIMESTEP
0
ITEM: NUMBER OF ATOMS
6
ITEM: BOX BOUNDS pp pp pp
-6.7187500000 6.7187500000
-6.7187500000 6.7187500000
-6.4759998300 6.4759998300
ITEM: ATOMS x y z
6.1588496875 -5.0390625000 -6.4759998300
5.0390625000 -2.7994746875 -6.4759998300
5.5989628125 1.1197871875 -1.6189999575
1.6796875000 5.0390625000 0.0000000000
-4.4791621875 -5.0390625000 5.6664998513
6.1588496875 -6.1588537188 3.2379999150
