ITEM: TIMESTEP
2
ITEM: NUMBER OF ATOMS
6
ITEM: BOX BOUNDS pp pp pp
-6.71875 6.71875
-6.71875 6.71875
-6.47599983 6.47599983
ITEM: ATOMS x y z
6.1588496875 -5.5989587812 -5.6664998513 2
2.7994746875 -1.6796875 -6.47599983 2
0.0 -4.4791621875 4.8569998725 2
3.359375 -3.9192753125 5.6664998512 2
5.5989628125 -2.2395878125 4.8569998725 2
5.5989628125 0.0 4.8569998725 2
