ITEM: TIMESTEP
1
ITEM: NUMBER OF ATOMS
6
ITEM: BOX BOUNDS pp pp pp
-6.71875 6.71875
-6.71875 6.71875
-6.47599983 6.47599983
ITEM: ATOMS x y z
-2.2395878125 -2.7994746875 -0.8094999787 2
-2.2395878125 -1.1197871875 1.6189999575 2
-1.6796875 0.5599003125 0.0 2
1.1197871875 0.0 1.6189999575 2
-3.9192753125 -6.1588537187 3.237999915 2
3.9192753125 2.2395878125 4.0474998937 2
