ITEM: TIMESTEP
0
ITEM: NUMBER OF ATOMS
2298
ITEM: BOX BOUNDS pp pp pp
-6.71875 6.71875
-6.71875 6.71875
-6.476 6.476
ITEM: ATOMS x y z
-6.2082499687 -6.2812559063 -5.6933145256 1
-5.6606248125 -6.3248740313 -4.88057264 1
-5.6609809062 -5.7560082187 -4.088726216 1
-5.0585603125 -6.2836249375 -5.6172098688 1
-4.478208125 -6.3425550937 -4.868345952 1
-3.95895625 -5.322996875 -5.73038574 1
-4.5628509375 -5.8029655625 -4.068249104 1
-3.9072621875 -6.4651077813 -5.6538730952 1
-3.3347440625 -6.47237075 -4.825345312 1
-2.79322625 -6.012432 -6.4356361282 1
-3.3698428125 -5.9448991563 -3.986055712 1
-2.83644125 -6.6257448969 -5.7389962296 1
-6.1811841562 -5.1837709375 -5.5802966688 1
-5.5875073437 -5.169486875 -4.84074524 1
-5.097031875 -4.643489375 -6.4644577734 1
-5.6597916875 -4.5887046875 -4.105732192 1
-5.04502875 -5.209315625 -5.6728762696 1
-4.4704278125 -5.19262625 -4.822457016 1
-4.47947125 -4.65303 -3.994124808 1
-3.3222203125 -4.8644421875 -4.05935108 1
-2.823353125 -5.4442743438 -5.6589671168 1
-6.1035785625 -3.5579946875 -6.4262724798 1
-6.716695245 -3.6204253125 -4.008656952 1
-6.2146408437 -4.10859625 -5.6337923144 1
-5.056396875 -4.0776765625 -5.6980873376 1
-5.0269284375 -3.467708125 -6.4378098623 1
-5.5540667813 -3.477436875 -4.024341824 1
-4.5363790625 -4.1375809375 -4.878267184 1
-3.9180659375 -4.1609621875 -5.6475201392 1
-4.46168 -3.5570271875 -4.09075968 1
-3.3703803125 -4.302391875 -4.867996248 1
-3.426481875 -5.4197119375 -4.872529448 1
-3.9180928125 -3.6207075 -3.18994808 1
-2.7867896875 -4.38562375 -5.643160496 1
-6.2193036563 -2.96098 -5.712162276 1
-5.670071375 -2.933675 -4.876117152 1
-5.6286959687 -4.00002125 -4.877813864 1
-5.5725970937 -2.3936890625 -4.04821236 1
-5.0616778125 -2.911395625 -5.6173355032 1
-4.4793234375 -2.9932434375 -4.8705996 1
-4.49344625 -2.418830625 -4.087249688 1
-3.9084715625 -3.10046125 -5.6426773864 1
-3.32137375 -3.1364334375 -4.8356292 1
-2.803815 -2.6490553125 -6.4220501278 1
-3.35491375 -2.58865375 -4.010703368 1
-2.816526875 -3.262651875 -5.723832028 1
-6.1974811563 -5.7255575 -3.22640796 1
-6.1660508437 -6.303456 -2.437488688 1
-5.11759125 -5.6853027812 -3.233104144 1
-5.0675096875 -6.2636742813 -2.45835436 1
-3.9947671875 -5.8978155 -3.298654216 1
-3.871585625 -6.4042493438 -2.386237624 1
-2.7795334375 -6.064849 -3.269706496 1
-6.182513125 -4.6455721875 -3.19778404 1
-6.1605629687 -5.1897640625 -2.368843088 1
-5.1138690625 -4.623548125 -3.299224104 1
-4.9686096875 -5.1430015625 -2.408929528 1
-3.8955178125 -4.758944375 -3.26630012 1
-3.9227153125 -5.3410165625 -2.487094848 1
-2.789006875 -4.335555625 -2.38912592 1
-6.1510223438 -3.53073 -3.268579672 1
-6.1617159063 -4.0524140625 -2.421920384 1
-4.98929 -3.4996221875 -3.225553128 1
-5.0727771875 -4.08795625 -2.442565872 1
-3.98368125 -4.215478125 -2.445441216 1
-3.402133125 -3.7331121875 -4.095655536 1
-6.188049375 -2.959878125 -2.465944232 1
-5.0265790625 -2.3628096875 -3.206254648 1
-5.1068009375 -2.9422615625 -2.439729384 1
-3.9588353125 -2.5532459375 -3.260264488 1
-3.89004875 -3.0572865625 -2.371718432 1
-2.7806084375 -2.6985725 -3.25237672 1
-2.8555090625 -3.81404625 -3.264111232 1
-2.7759590625 -4.897028125 -3.185065176 1
-2.8658425 -5.504177375 -2.472057576 1
-2.77344625 -3.2609184375 -2.441931224 1
-3.965701875 -5.917063375 -6.4722530512 1
-2.2776428125 -5.031 -4.10455356 1
-2.31119625 -6.6898810094 -4.847791128 1
-2.2640709375 -5.5979052813 -4.883318464 1
-2.2538853125 -3.8769875 -4.010146432 1
-2.2678065625 -3.3523740625 -4.88406968 1
-6.7029876781 -4.751150625 -4.106198464 1
-6.1563355312 -2.380668125 -3.269382696 1
-2.7799634375 -6.6313420187 -2.460336016 1
-3.916144375 -4.72779625 -6.4427300681 1
-3.9399825 -2.5482203125 -6.4629222361 1
-2.191468125 -6.1336503438 -4.026556616 1
-2.2146478125 -2.7915196875 -4.05021992 1
-1.7241521875 -5.0913075 -3.255148448 1
-1.6652690625 -5.6535244375 -5.6395365264 1
-1.1327678125 -6.3353552813 -4.099774272 1
0.547685625 -6.5734073125 -6.4102663982 1
-0.0174284375 -6.4554542812 -4.057006768 1
1.122541875 -6.5889249375 -4.027476208 1
-1.1052209375 -5.7204633437 -4.815605408 1
-0.5950796875 -5.8176446875 -5.6855938384 1
-0.58625125 -4.6979246875 -5.6617686344 1
-1.1417440625 -5.1547459375 -4.037229064 1
-0.019484375 -5.8850512188 -4.85123636 1
0.0155875 -5.316063125 -4.053470872 1
0.5258765625 -5.95961725 -5.6819957728 1
1.0835328125 -6.0621386563 -4.8874372 1
1.11235625 -5.4989716875 -4.091756984 1
1.6852640625 -6.0122102812 -5.6433379384 1
-2.20616875 -4.42088375 -4.837727424 1
-1.652705 -3.9653525 -6.416012812 1
-1.699145 -4.578290625 -5.7218555528 1
-1.14396125 -4.603768125 -4.861688624 1
-1.0848496875 -4.05103 -4.043458976 1
0.00478375 -4.7752171875 -4.917848496 1
1.0866503125 -4.333405625 -4.028603032 1
-0.02408 -4.2438446875 -4.084050544 1
0.6174665625 -4.9018521875 -5.6300802712 1
1.171965 -4.89732375 -4.815631312 1
1.13692 -3.784456875 -4.855562328 1
1.66931375 -4.878000625 -5.7207533376 1
-1.674205 -3.3809690625 -5.6581835208 1
-1.11332375 -3.5152903125 -4.886517608 1
-1.1626796875 -2.9503509375 -4.099670656 1
-0.5063921875 -3.5819 -5.6228932064 1
0.069525625 -3.63839125 -4.835655104 1
0.58308 -3.797948125 -5.7126907176 1
1.153340625 -3.2355753125 -3.990019024 1
1.7316234375 -3.2345675 -3.197240056 1
1.6848878125 -3.774459375 -5.6687510576 1
-1.6311378125 -6.1810282812 -3.190932432 1
-0.575850625 -6.3537942188 -3.240694016 1
0.54325125 -6.5412392813 -3.258580728 1
1.68199875 -6.6153986938 -3.200542816 1
-1.6995615625 -5.616461125 -2.394319672 1
-0.5683390625 -5.28142125 -3.273281248 1
-0.5318428125 -5.8078877188 -2.394591664 1
0.5729346875 -5.4163834688 -3.232922816 1
0.550211875 -5.9906014375 -2.44022156 1
1.652275 -5.4546978125 -3.233971928 1
1.690088125 -6.0316449375 -2.455660344 1
-1.6729015625 -3.9978175 -3.278941272 1
-1.6553790625 -4.5304665625 -2.415327816 1
-0.5443396875 -4.12869875 -3.197032824 1
-0.603800625 -4.7307525 -2.461618264 1
0.5265753125 -4.2937784375 -3.22006148 1
0.54174625 -4.85980625 -2.429497304 1
1.6769328125 -4.37240125 -3.275677368 1
1.6968471875 -4.893319375 -2.409292184 1
-1.7193146875 -3.4515159375 -2.459623656 1
-0.0374503125 -3.1095853125 -4.009654256 1
-0.55668875 -3.5651434375 -2.40395596 1
0.5435065625 -3.16259625 -3.273307152 1
0.5764553125 -3.713775625 -2.44326528 1
2.19864375 -6.4873159375 -4.063081256 1
2.234065 -3.1623409375 -4.082107744 1
-2.219955625 -2.23981625 -4.865457656 1
-1.62674375 -2.3072590625 -5.6408628112 1
-0.5577771875 -2.5119390625 -5.7259522704 1
-1.065325 -2.341645625 -4.823765168 1
-0.011475625 -2.5395396875 -4.827029072 1
0.51944 -2.6094953125 -5.697105576 1
1.0754703125 -2.70986 -4.86243984 1
1.6424925 -2.6676125 -5.6053639696 1
-1.6644628125 -2.838940625 -3.186308568 1
-0.618850625 -3.017229375 -3.238595792 1
0.54120875 -2.63289 -2.429834056 1
1.6427075 -3.8240975 -2.44941748 1
-1.673963125 -2.2793090625 -2.381264056 1
-0.5163896875 -2.466291875 -2.413553392 1
1.651925625 -2.65181 -2.4582896 1
1.610914375 -6.5724895312 -6.4652966485 1
2.2382709375 -5.4283428438 -4.038083896 1
2.2348309375 -3.7715434375 -4.82831132 1
-0.57840375 -4.10225375 -6.4632220749 1
0.6572953125 -3.18581625 -6.4464589489 1
1.788585 -3.1901834375 -6.4657646431 1
1.621556875 -5.497598375 -6.4725674221 1
6.700340625 -5.7548042188 -4.093907016 1
2.2410928125 -4.866713125 -4.878280136 1
2.2549334375 -2.6046846875 -4.871299008 1
6.69741125 -6.3793644375 -4.805917312 1
6.5478921875 -5.27679875 -5.079217464 1
6.6519790625 -4.1350009375 -4.836134328 1
6.696578125 -3.0435534375 -4.813364712 1
6.7046271875 -2.4650959375 -4.035053128 1
3.365260625 -6.360877125 -4.054403416 1
4.53214625 -6.204378625 -4.035791392 1
5.0444375 -6.6959476375 -5.61465962 1
5.6145771875 -6.5303602813 -4.834567136 1
5.06943125 -6.129784375 -6.4381361232 1
5.5661215625 -5.9245709063 -4.079387824 1
2.2571103125 -5.9478164375 -4.913367104 1
3.3758225 -5.7677485625 -4.8226772 1
3.98335875 -4.565229375 -5.65179948 1
3.3290196875 -5.1918065625 -4.060944176 1
3.91853625 -5.6938651563 -5.7138175416 1
4.4470734375 -5.6291017813 -4.82941224 1
4.5050696875 -5.076069375 -4.058366728 1
5.0049984375 -5.5417580312 -5.6385353368 1
5.6531696875 -5.4145559688 -5.05335232 1
6.1163603125 -5.7929237188 -6.3266142224 1
5.6398934375 -4.927585 -4.02068936 1
6.16388875 -6.4248140938 -5.7032279864 1
2.260106875 -4.3182884375 -4.041658648 1
2.7653703125 -4.72779625 -5.735126172 1
3.3452925 -4.6762903125 -4.973321912 1
3.3786578125 -4.148236875 -4.092288016 1
3.9196246875 -3.460881875 -5.6477804744 1
4.5184265625 -4.5084425 -4.824477528 1
4.4241221875 -3.9267196875 -4.05682544 1
5.0400165625 -4.41077875 -5.7256997064 1
5.5634475 -4.347810625 -4.809051696 1
5.5632190625 -3.771664375 -4.047253912 1
6.1704059375 -4.8654096875 -6.3351677232 1
2.8137721875 -2.6970809375 -5.7276191928 1
2.7702078125 -3.6220109375 -5.7308921632 1
3.331129375 -3.5736225 -4.862685928 1
3.8925884375 -2.8871946875 -6.4636027601 1
3.3659190625 -2.9935928125 -4.093699784 1
4.4840803125 -3.3853496875 -4.894211096 1
4.491161875 -2.8452965625 -4.050064496 1
5.0608178125 -3.3297184375 -5.6740043888 1
5.61047875 -3.2037284375 -4.873112288 1
6.169075625 -3.15023375 -5.6963763784 1
5.5868153125 -2.6498346875 -4.055102824 1
6.0882490625 -4.24883 -5.712071612 1
2.7962228125 -6.454584875 -3.277166848 1
3.9300925 -6.2235055625 -3.270846272 1
5.0582109375 -6.1050365312 -3.182682008 1
5.020223125 -6.686445175 -2.438589608 1
6.1516875 -5.9696429687 -3.261456072 1
6.1933975 -6.4922165938 -2.375060048 1
2.7879184375 -5.35054375 -3.210567664 1
2.8154653125 -5.9133694063 -2.421739056 1
3.9111725 -5.1655496875 -3.286142584 1
3.90606625 -5.6840907188 -2.392571152 1
5.044733125 -4.90033375 -3.25464332 1
4.998105 -5.4906310313 -2.496705232 1
6.191865625 -4.7657840625 -3.206941104 1
6.117421875 -5.3948700312 -2.489542776 1
2.8047153125 -4.1816828125 -3.246431752 1
2.8000928125 -4.7640371875 -2.458211888 1
3.888140625 -4.04415 -3.205891992 1
3.911951875 -4.6205784375 -2.433797368 1
4.990445625 -3.84285625 -3.245848912 1
5.021029375 -4.3839709375 -2.395355832 1
6.117851875 -3.6629415625 -3.265186248 1
6.1258740625 -4.207899375 -2.44073964 1
2.8244953125 -3.1290159375 -3.25768704 1
2.7891546875 -3.6695259375 -2.372184704 1
3.9012153125 -2.9212990625 -3.251223992 1
3.9385178125 -3.471040625 -2.422373704 1
5.025813125 -2.7094165625 -3.219815392 1
5.061341875 -3.2723403125 -2.429328928 1
6.1344875 -2.551754375 -3.233609272 1
6.186544375 -3.1096928125 -2.424769824 1
3.35158125 -2.4019665625 -4.82954176 1
3.934096875 -2.3484315625 -5.6412345336 1
4.482884375 -2.2871296875 -4.829632424 1
2.7943146875 -2.571910625 -2.435286848 1
3.9418234375 -2.3951 -2.381523096 1
2.849959375 -5.9011278438 -5.678551836 1
5.0183553125 -2.76183625 -6.4604985283 1
4.4321309375 -6.7174974436 -4.932937576 1
2.75162375 -5.3310325 -6.4416259101 1
3.886474375 -5.117618125 -6.4747761824 1
6.0673940625 -2.5552346875 -6.4640716872 1
-6.1294578438 -1.8445925 -5.6633112176 1
-5.5908102813 -1.8013909375 -4.827003168 1
-5.6595242813 -1.23673375 -4.06537376 1
-5.04545875 -1.828386875 -5.6765287336 1
-4.4759640625 -1.83325125 -4.84521368 1
-4.4789875 -1.29725625 -3.98235144 1
-3.941245625 -1.965610625 -5.7105018296 1
-3.3968253125 -2.069831875 -4.89915876 1
-3.3353084375 -1.5270509375 -4.053613344 1
-2.7695896875 -2.087891875 -5.6302344 1
-6.1749088437 -0.1587909375 -6.4238232566 1
-6.6983553687 -0.2774440625 -4.053108216 1
-6.1336395937 -0.7491271875 -5.6594761304 1
-5.565742625 -0.664699375 -4.86386456 1
-5.5793695938 -0.128596875 -4.011221448 1
-5.0098628125 -0.6791984375 -5.697448804 1
-4.4846446875 -0.788216875 -4.8641236 1
-4.487883125 -0.2096115625 -4.064428264 1
-3.886474375 -0.79082375 -5.6567549152 1
-3.3555990625 -0.9588059375 -4.842144056 1
-3.3901334375 -0.37367 -4.08978828 1
-2.78494875 -1.021706875 -5.6493295336 1
-6.1911104375 0.42801125 -5.6784262016 1
-5.6335280937 0.4051540625 -4.88795528 1
-5.5666657813 0.9398725 -4.037384488 1
-5.018449375 0.4633921875 -5.6211369152 1
-4.4564125 0.3601115625 -4.848995664 1
-4.478235 0.9213690625 -4.07100788 1
-3.902465 0.2512409375 -5.6634588704 1
-3.3393934375 0.229593125 -4.807082992 1
-2.7826240625 0.6947053125 -6.4106434309 1
-3.3153671875 0.79082375 -4.014044984 1
-2.836683125 0.083635 -5.7145052928 1
-6.7060708588 1.4917909375 -4.829619472 1
-6.1181018125 1.5346834375 -5.6498877648 1
-5.585103375 1.531955625 -4.793379776 1
-5.6297951563 2.144006875 -4.081576712 1
-5.0583990625 1.5472609375 -5.6685813864 1
-4.4875203125 1.5233690625 -4.833077656 1
-3.9038490625 1.96768 -6.4128224754 1
-4.441604375 2.0525915625 -3.989591608 1
-3.95616125 1.379413125 -5.691834112 1
-3.392511875 1.302013125 -4.914455072 1
-2.7621184375 1.2605315625 -5.613416228 1
-6.1921961875 -1.2784303125 -3.195374968 1
-6.158121375 -1.8589303125 -2.424782776 1
-5.1041940625 -1.27538 -3.277788544 1
-5.0042459375 -1.792589375 -2.405821048 1
-3.8965525 -1.3980375 -3.250705912 1
-3.9165609375 -1.9692925 -2.466099656 1
-2.7777328125 -1.540233125 -3.196851496 1
-2.85288875 -2.13925 -2.452474152 1
-6.1728515625 -0.142088125 -3.233868312 1
-6.148435625 -0.6839015625 -2.427308416 1
-5.011569375 -0.139615625 -3.207005864 1
-5.0251278125 -0.7216475 -2.446917744 1
-3.9143975 -0.2505825 -3.216292448 1
-3.9504771875 -0.84495 -2.4492232 1
-2.8431465625 -0.475821875 -3.282308792 1
-2.777988125 -0.987199375 -2.380992064 1
-6.1577357187 0.97954 -3.285093472 1
-6.1889255 0.4223003125 -2.43381032 1
-5.0202903125 1.02538875 -3.202032296 1
-5.0903265625 0.445265 -2.457098016 1
-3.930415 0.80146625 -3.272037856 1
-3.8935559375 0.2867696875 -2.372832304 1
-6.1690621875 2.039463125 -3.247273632 1
-6.1452737813 1.4852871875 -2.395226312 1
-5.06497 2.093213125 -3.295584592 1
-5.020545625 1.5887290625 -2.389164776 1
-2.789221875 1.8129740625 -3.184145584 1
-3.92401875 1.3573890625 -2.4537564 1
-2.766216875 0.64199 -3.225268184 1
-2.824535625 1.2100065625 -2.450881056 1
-2.2682096875 -1.665201875 -4.098556784 1
-2.2870625 0.0145796875 -4.890467968 1
-2.2849796875 1.6879784375 -4.081395384 1
-3.3463271875 1.8464871875 -4.06375476 1
-3.8784925 1.94978125 -3.204376608 1
-2.788093125 0.0685178125 -2.437553448 1
-6.7178367432 -0.789614375 -4.899663888 1
-5.0318734375 -1.2585159375 -6.4632259216 1
-3.9010809375 -1.3668759375 -6.4355545306 1
-5.0854353125 -0.0854759375 -6.4504266646 1
-2.2163409375 -0.50078875 -3.991106992 1
1.64136375 -2.080850625 -3.232534256 1
-1.6571796875 0.5447965625 -3.176594568 1
-1.1305909375 -1.7946184375 -4.005263528 1
-0.5602765625 -1.92683 -3.245810056 1
0.023999375 -1.973404375 -4.0180342 1
1.1153259375 -2.141534375 -4.0950986 1
-2.2182759375 -1.047023125 -4.806448344 1
-1.6350078125 -0.599500625 -6.3968452767 1
-1.7238296875 -1.2135809375 -5.7129601192 1
-1.16186 -1.257024375 -4.876479808 1
-0.569669375 -0.750645625 -6.4500909487 1
-0.517424375 -0.7559803125 -3.184210344 1
-0.575366875 -1.3199253125 -5.6583635536 1
-0.016366875 -1.456275625 -4.903135024 1
0.615464375 -1.498953125 -5.5959193712 1
-0.0043403125 -0.8985790625 -4.088117472 1
1.1766009375 -1.5331784375 -4.805192 1
1.0904396875 -0.95847 -4.064000848 1
1.70016625 -1.5844021875 -5.6856676648 1
-2.202701875 0.5716178125 -4.04516864 1
-1.67759125 -0.0087075 -5.6377504456 1
-1.0645590625 -0.7214325 -4.02930244 1
-1.12385875 -0.179820625 -4.87785272 1
-0.5159059375 -0.19226375 -5.6240096688 1
0.0356228125 -0.2924940625 -4.828039328 1
0.6056146875 0.1670953125 -6.434129163 1
-0.01080375 0.2602575 -4.00909732 1
0.567143125 -0.4228109375 -5.700453668 1
1.1119665625 -0.3750675 -4.8479336 1
1.680090625 -0.476225 -5.6604747296 1
1.1666034375 0.1626878125 -4.001222504 1
-2.1969775 1.1164815625 -4.872205648 1
-1.6091675 1.076048125 -5.6415829424 1
-1.153716875 0.389445625 -4.093337128 1
-0.5042825 1.4821696875 -6.4572842305 1
-1.0669778125 1.0018328125 -4.793548152 1
-0.5702203125 0.8781003125 -5.715484464 1
-0.02193 0.8119609375 -4.835331304 1
0.0649703125 1.3889940625 -4.03202236 1
0.5284296875 0.758331875 -5.6925425864 1
1.0778353125 0.6888734375 -4.891283944 1
1.69866125 0.6444759375 -5.6262309368 1
1.1778371875 1.8175025 -4.86095036 1
-1.7284521875 -1.758135625 -3.256223464 1
-0.6017715625 -1.357160625 -2.464169808 1
0.5811853125 -2.0326234375 -3.215243336 1
1.72693375 -1.5199425 -2.405173448 1
-1.66415375 -1.1933440625 -2.437864296 1
-0.530109375 -0.1901809375 -2.389656952 1
-0.6105865625 0.3415946875 -3.254811696 1
0.54658375 -0.95067625 -3.211085744 1
1.6491575 -0.99045125 -3.274628256 1
-1.6399259375 1.1024528125 -2.385667736 1
-1.6505684375 -0.6336721875 -3.247157064 1
-0.522315625 1.4366434375 -3.272944496 1
-1.714651875 -0.0757875 -2.45822484 1
-0.52196625 0.8980953125 -2.421091456 1
0.5601959375 0.1598659375 -3.276752384 1
1.741526875 0.11540125 -3.218105728 1
1.669931875 -0.4593340625 -2.413760624 1
-1.720994375 1.6211 -3.277348176 1
0.601704375 1.3211346875 -3.193341504 1
1.1279034375 1.234718125 -4.078507088 1
1.6386628125 0.6656803125 -2.42778764 1
1.6728478125 1.2373921875 -3.228570944 1
-1.7087259375 2.1600378125 -5.7200966712 1
-1.17760875 2.1118778125 -4.846003752 1
-0.602349375 2.0383478125 -5.6456757744 1
-0.0350046875 1.9138090625 -4.898653632 1
0.58136 1.8765603125 -5.6024614264 1
1.7096665625 1.7733871875 -5.7003228528 1
1.682375 1.1658375 -6.4595276464 1
-1.657676875 2.182599375 -2.444197824 1
-0.61957625 1.9828778125 -2.448212944 1
0.5610290625 1.8583525 -2.366317448 1
0.557898125 -1.5009553125 -2.369982864 1
0.598775 -0.3676096875 -2.424005656 1
0.5312784375 0.7141225 -2.456243184 1
-1.110340625 1.570010625 -3.999046568 1
1.750986875 1.7943765625 -2.41308712 1
-0.514468125 -1.8925778125 -6.4242905647 1
2.2379484375 -0.4645075 -4.8508478 1
2.2324525 -2.0832021875 -4.005911128 1
2.2328959375 1.2978340625 -4.047020776 1
0.5791428125 1.3362653125 -6.4543820758 1
6.7140334375 -1.938413125 -4.882528392 1
6.6894428125 2.0733525 -4.062874024 1
2.251775625 -1.003754375 -4.02910816 1
2.24508375 0.144023125 -4.117104048 1
6.698755 -1.3671446875 -4.082638776 1
6.7059709375 0.315593125 -4.804337168 1
6.7077984375 0.91219125 -4.069505448 1
3.3551153125 -1.8384515625 -4.020572792 1
4.4823065625 -1.685304375 -4.091096432 1
4.9989246875 -2.1547703125 -5.7122101984 1
5.581480625 -2.121593125 -4.935592736 1
5.6277325 -1.5705615625 -4.06964792 1
6.1808065625 -1.97891375 -5.6899716144 1
2.2853290625 -1.5426115625 -4.889146864 1
2.835930625 -0.94938625 -6.4217294362 1
2.78763625 -0.7965615625 -3.235370744 1
2.8080209375 -1.5494646875 -5.7742697064 1
3.331129375 -1.3209196875 -4.918923512 1
3.38275625 -0.793376875 -3.994357944 1
3.9581096875 -1.2844234375 -5.6790517832 1
4.45109125 -1.1069275 -4.816123488 1
4.46055125 -0.5116865625 -4.064777968 1
5.01482125 -1.0681871875 -5.6462650904 1
5.5782421875 -0.9998171875 -4.843374496 1
5.585888125 -0.39361125 -4.10986388 1
6.1415690625 -0.85629125 -5.6424209368 1
2.7693075 -0.299306875 -5.7048171968 1
3.335053125 -0.29105625 -4.900220824 1
4.0021175 0.4718309375 -6.4428435276 1
3.364293125 0.2611578125 -4.060918272 1
3.9036609375 -0.11583125 -5.6762411992 1
4.4880846875 0.0224675 -4.92098288 1
4.49731625 0.5203134375 -3.9905112 1
5.07959 -0.0133971875 -5.6790673256 1
5.6145503125 0.200084375 -4.849345368 1
5.5691853125 0.770775 -4.059985728 1
6.1850125 0.229270625 -5.7033898864 1
2.25508125 0.7435909375 -4.856002696 1
2.8337671875 0.780960625 -5.6408628112 1
3.38286375 0.84968 -4.802420272 1
3.3575071875 1.457350625 -4.0682232 1
3.8806021875 1.04721125 -5.7050555136 1
4.4448428125 1.0621403125 -4.860095528 1
5.0932559375 1.7300109375 -6.4676736384 1
4.5147715625 1.610215625 -4.03603748 1
4.9851378125 1.17691 -5.67514546 1
5.5723565625 1.2984253125 -4.94371364 1
6.190951875 1.878105625 -6.424039555 1
5.6328790625 1.808768125 -4.027605728 1
6.208904375 1.301690625 -5.6263345528 1
2.802014375 -2.0111503125 -3.208611912 1
3.946996875 -1.8559203125 -3.252933656 1
5.0423546875 -1.5979740625 -3.281557576 1
5.0426771875 -2.1430796875 -2.4145766 1
6.163835 -1.402015 -3.213404152 1
6.138545625 -1.9856459375 -2.445609592 1
2.8233128125 -0.2609025 -2.40149508 1
2.796961875 -1.392743125 -2.501601088 1
3.9515521875 -0.704850625 -3.186606464 1
3.9080146875 -1.303975 -2.456243184 1
5.045808125 -0.566175625 -3.265095584 1
5.0512771875 -1.094161875 -2.364555976 1
6.130295 -0.3194228125 -3.290870064 1
6.142684375 -0.8338371875 -2.414239848 1
2.801369375 1.3595928125 -3.250848384 1
2.7842634375 0.3021421875 -3.244851608 1
3.8830746875 0.507480625 -3.22653748 1
3.9309390625 -0.08815 -2.495384128 1
5.057445 0.580419375 -3.187914616 1
5.0518953125 -0.005375 -2.448523792 1
6.15582625 0.728635 -3.276363824 1
6.177568125 0.215188125 -2.381691472 1
3.9229571875 1.593123125 -3.266533256 1
3.93777875 1.04721125 -2.398360696 1
5.0474071875 1.78708 -3.216732816 1
5.04433 1.1957628125 -2.483325816 1
6.171064375 1.8916775 -3.184870896 1
6.17764875 1.2964903125 -2.46269328 1
2.262041875 1.87324125 -4.851974624 1
2.820396875 1.8829028125 -5.659531824 1
3.3663625 2.0220346875 -4.84424228 1
3.943341875 2.1356890625 -5.6301916584 1
4.4989421875 2.1825725 -4.821874176 1
3.8821878125 2.1162853125 -2.418371536 1
2.7910225 0.8355571875 -2.374956432 1
2.805965 1.941369375 -2.4683274 1
3.938719375 -0.667763125 -6.4265320378 1
5.096601875 0.5840609375 -6.4305108922 1
-3.940815625 3.10804 -3.199480752 1
-6.1238584375 3.1754425 -6.4247094324 1
-6.6822952719 3.1329665625 -4.03273472 1
-6.1303393438 2.5910590625 -5.623913824 1
-5.5819576563 2.724883125 -4.818377136 1
-5.5955322187 3.30406625 -4.029924136 1
-5.040594375 2.65863625 -5.6754148616 1
-4.4835025 2.5762240625 -4.874459296 1
-4.497665625 3.14679375 -4.069168696 1
-3.8877778125 2.552721875 -5.6424960584 1
-3.3249615625 2.41600875 -4.863009728 1
-2.7475925 2.3439703125 -5.6592766696 1
-6.1370822812 4.3407425 -6.4379497439 1
-6.6678346406 4.2644309375 -4.04335536 1
-6.2043436875 3.7613578125 -5.6768175632 1
-5.6269517812 3.815201875 -4.91113936 1
-5.5851006875 4.3543009375 -4.054766072 1
-5.0001878125 3.7865128125 -5.6010185736 1
-4.42744125 3.717323125 -4.846210984 1
-4.515725625 4.2767396875 -4.05248652 1
-3.88247 3.628555 -5.6782461688 1
-3.3307396875 3.5660303125 -4.79703224 1
-2.75388125 4.0548596875 -6.4288394366 1
-3.309736875 4.13138625 -3.99497964 1
-2.8320875 3.447390625 -5.7232763872 1
-6.1508194375 4.926375625 -5.6663821368 1
-5.5906194687 4.934975625 -4.852427944 1
-5.6265419375 5.47261 -4.029159968 1
-5.0429459375 4.872733125 -5.6857220632 1
-4.4869559375 4.87141625 -4.819801856 1
-3.920928125 5.9078775 -5.6056346664 1
-4.430746875 5.413243125 -4.001831248 1
-3.960380625 4.7630159375 -5.707926972 1
-3.424761875 4.6432071875 -4.885338976 1
-3.321239375 5.2100278125 -4.08855784 1
-2.8089615625 4.6133625 -5.6143125064 1
-6.7138486719 5.9640865625 -4.856572584 1
-6.1697716875 6.0266515625 -5.6868553632 1
-5.6158940625 6.044053125 -4.828622168 1
-5.5519906875 6.5911609375 -3.998386016 1
-5.09335 6.02005375 -5.7062911344 1
-4.537225625 5.9362709375 -4.893822536 1
-4.462405625 6.497649375 -4.09561668 1
-3.326668125 5.7813096875 -4.882813336 1
-3.4223565625 6.3457653125 -4.099800176 1
-2.7432925 5.6942078125 -5.6356781256 1
-6.153154875 3.1840021875 -3.206707968 1
-6.1130640938 2.5938809375 -2.435973304 1
-5.035649375 3.1868375 -3.221175352 1
-5.0272240625 2.6239675 -2.404823744 1
-3.9367709375 2.5147878125 -2.43750164 1
-3.40887875 2.97113875 -4.051489216 1
-2.83751625 2.8989525 -3.286984464 1
-6.1337874062 4.3437659375 -3.198859056 1
-6.174203375 3.749035625 -2.42811144 1
-5.0525134375 4.3434434375 -3.184948608 1
-5.0251009375 3.7590465625 -2.441011632 1
-3.936354375 4.180110625 -3.298317464 1
-3.86306625 3.6643659375 -2.400096264 1
-2.7350015625 4.0253778125 -3.25023964 1
-2.8025384375 3.45424375 -2.457305248 1
-6.1791618125 5.4440284375 -3.219167792 1
-6.1805687188 4.896544375 -2.398606784 1
-5.0355284375 5.444633125 -3.280327136 1
-5.0057240625 4.9343440625 -2.414084424 1
-3.8627303125 5.3241525 -3.230215848 1
-3.9333578125 4.73876125 -2.469959352 1
-2.7869778125 5.1723759375 -3.17932744 1
-2.86697125 4.571840625 -2.43057232 1
-6.1600899688 6.597355625 -3.28164824 1
-6.1694774063 6.042225625 -2.460867048 1
-4.980233125 6.590099375 -3.208029072 1
-5.10329375 6.009653125 -2.453393744 1
-3.91982625 6.459110625 -3.183044664 1
-3.9724609375 5.8759096875 -2.414175088 1
-2.87154 6.2459784375 -3.275275856 1
-2.7496215625 5.7282853125 -2.372638024 1
-2.29534 3.3749221875 -4.856080408 1
-2.280370625 5.063330625 -4.11057624 1
-2.2643934375 6.208528125 -3.99400824 1
-2.7357809375 2.3839603125 -2.399798368 1
-5.0040175 5.443343125 -6.4635478306 1
-6.7169500469 4.8200178125 -4.86697304 1
-5.05857375 3.248999375 -6.4443381884 1
-6.1468862812 6.611223125 -6.4740626398 1
-5.0141896875 6.616168125 -6.4534413721 1
-3.8819996875 5.3574103125 -6.4404762906 1
-1.7360175 6.645246875 -2.483817992 1
-2.1683421875 5.6618234375 -4.82766372 1
-1.7391215625 6.704909375 -5.6562523776 1
-1.182715 6.53917125 -4.87681656 1
-0.5807284375 6.5486178125 -5.6034069224 1
0.00897625 6.4214721875 -4.85557528 1
1.1554503125 6.295173125 -4.877878624 1
0.5681375 6.3005615625 -5.6529042856 1
1.720833125 6.285095 -5.6809259376 1
-0.590255625 6.5367390625 -2.39799804 1
0.5759715625 6.3685284375 -2.394086536 1
1.6917140625 6.24128875 -2.423889088 1
-2.206948125 2.301601875 -4.788367352 1
-2.2101596875 2.8557375 -3.97438596 1
-1.03474125 2.67304125 -4.039573376 1
0.0118921875 2.4876709375 -4.110951848 1
1.661439375 2.3519521875 -6.4390798059 1
1.1477371875 2.928703125 -4.873086384 1
-2.174483125 3.9489721875 -4.059985728 1
-1.7166675 3.3352278125 -5.6494733008 1
-1.1483553125 3.2081896875 -4.895506296 1
-1.1383309375 3.7722825 -4.099256192 1
-0.5471078125 2.60219875 -6.457400928 1
-0.530405 3.1571675 -5.607134508 1
-0.0264315625 3.637719375 -4.007970496 1
0.04042 3.0975453125 -4.844915784 1
0.57066375 2.966650625 -5.6827379224 1
1.6874678125 3.514175 -6.454528822 1
1.1586484375 3.467869375 -4.005393048 1
1.7147325 2.9306246875 -5.6760572808 1
-2.2300740625 4.4854778125 -4.894858696 1
-1.618063125 4.4283684375 -5.6225823584 1
-1.0522503125 4.3664215625 -4.842208816 1
-1.1580975 4.91205125 -4.00139088 1
-0.5412759375 4.248749375 -5.7376699448 1
-0.0044478125 4.1957921875 -4.823635648 1
0.0333653125 4.7544428125 -3.975383264 1
0.5277846875 4.15122 -5.705012772 1
1.0563890625 3.9987715625 -4.862297368 1
1.1654209375 4.556790625 -4.073416952 1
1.647088125 4.071481875 -5.6134641504 1
-1.6699990625 5.51856625 -5.7345135424 1
-1.127594375 5.4520640625 -4.843646488 1
-1.0638603125 6.010405625 -4.005613232 1
-0.575985 5.4463934375 -5.6889445208 1
-0.0413740625 5.25519125 -4.871221296 1
0.002606875 5.8428803125 -4.086861128 1
0.5585834375 5.2353709375 -5.635084924 1
1.11192625 5.153576875 -4.806254064 1
1.0804153125 5.747165 -4.060024584 1
1.629055 5.1646896875 -5.6885546656 1
-1.6248625 2.7327171875 -3.266999528 1
-0.502696875 2.582983125 -3.184275104 1
1.0751075 2.3744734375 -4.051398552 1
1.6272946875 2.333636875 -3.253011368 1
-1.6425596875 3.890398125 -3.167100752 1
-1.7424003125 3.288021875 -2.445039704 1
-0.609498125 3.6829634375 -3.221071736 1
-0.5523484375 3.1465653125 -2.371938616 1
0.552308125 3.52293625 -3.275237 1
0.6072540625 3.0040740625 -2.409318088 1
1.7132140625 3.48584875 -3.179353344 1
1.716318125 2.8818465625 -2.449003016 1
-1.75370125 4.977276875 -3.242714528 1
-1.65996125 4.4547059375 -2.364763208 1
-0.579855 4.799686875 -3.267621224 1
-0.4931428125 4.25189375 -2.423073112 1
0.6134890625 4.683801875 -3.23689908 1
0.5445815625 4.09107375 -2.46612556 1
1.704278125 4.6434490625 -3.245628728 1
1.634349375 4.08215125 -2.445415312 1
-1.6697840625 6.08605875 -3.27925212 1
-1.6336103125 5.540254375 -2.43840828 1
-0.5044840625 5.9770940625 -3.192680952 1
-0.5967325 5.35909 -2.481175784 1
0.5551165625 5.795351875 -3.196696072 1
0.536666875 5.2263409375 -2.407375288 1
1.6580934375 5.7127784375 -3.286816088 1
1.67630125 5.1945075 -2.383543608 1
2.217106875 3.5484271875 -4.076654952 1
2.1913471875 5.219850625 -4.849332416 1
0.52959875 2.41783625 -3.187305872 1
2.21423125 2.422270625 -4.014329928 1
-1.6124328125 2.7641609375 -6.4350767313 1
0.604230625 3.5504159375 -6.4434976036 1
-0.546288125 4.870851875 -6.4471678118 1
-1.6572065625 6.1362478125 -6.435227363 1
3.875025625 6.6586171875 -2.464519512 1
6.69235875 2.6245453125 -4.918599712 1
6.68349 3.701225 -4.851974624 1
6.702114375 6.493349375 -4.018086008 1
2.2494375 4.0964890625 -4.913898136 1
2.25572625 5.762241875 -4.018332096 1
2.2481609375 6.3397990625 -4.796293976 1
2.766405 6.4542328125 -5.7023744496 1
3.3046709375 6.50208375 -4.822975096 1
3.8304265625 6.626756875 -5.6631544984 1
2.7825703125 6.4431871875 -2.402090872 1
6.7030146875 5.375886875 -4.051009992 1
2.8249521875 2.4535934375 -6.4704609736 1
3.38512125 2.5956546875 -4.05572452 1
4.4881653125 2.7670365625 -4.061669488 1
5.0145390625 2.3365125 -5.7291915656 1
5.564226875 2.3672171875 -4.87293096 1
6.19587 3.0406375 -6.4696062582 1
5.62735625 2.9089903125 -4.03720316 1
6.121560625 2.4647196875 -5.6866688544 1
2.268868125 2.962081875 -4.857246088 1
2.7693478125 3.6162865625 -6.450080069 1
2.8314559375 3.0189225 -5.6870444624 1
3.3620221875 3.1735746875 -4.831911976 1
3.92627625 3.2193965625 -5.6355265872 1
3.3216290625 3.7360953125 -4.05093228 1
4.5014146875 3.3329434375 -4.861714528 1
4.4874934375 3.871935 -4.039638136 1
5.0653596875 3.44123625 -5.6555542648 1
5.6181784375 3.47585125 -4.83893196 1
5.613730625 4.045413125 -4.035791392 1
6.14077625 3.6287834375 -5.7240379648 1
2.80290125 4.763728125 -6.4065051374 1
2.277575625 4.630105625 -4.06291288 1
2.8458878125 4.1688634375 -5.6471328744 1
3.4146165625 4.3081565625 -4.858826232 1
3.8697446875 4.92366125 -6.447466744 1
3.3114971875 4.870368125 -4.051294936 1
3.967153125 4.3314975 -5.6946110208 1
4.48957625 4.466544375 -4.802057616 1
4.4306259375 5.046614375 -4.048769296 1
5.0299653125 4.53472625 -5.6483918088 1
5.5974040625 4.592803125 -4.852324328 1
5.6062459375 5.159381875 -4.045919856 1
6.1611340625 4.767866875 -5.6480705992 1
2.741868125 5.3370928125 -5.6383073816 1
3.3476171875 5.4005446875 -4.926383864 1