ITEM: TIMESTEP
85000
# source: voids-relax.85000.cfg
ITEM: NUMBER OF ATOMS
2298
ITEM: BOX BOUNDS pp pp pp
-6.7187500000 6.7187500000
-6.7187500000 6.7187500000
-6.4760000000 6.4760000000
ITEM: ATOMS x y z
-5.5641852188 -6.4816076875 -4.0243418240
-3.9450350000 -5.6745433750 -5.6371585392
-4.4166643750 -6.3346081563 -4.0714741520
-2.8533187500 -6.0496928438 -6.4350860567
-3.3712268750 -6.1367906875 -4.0740516000
-2.7431715625 -6.6421245375 -5.7057717592
-6.7055613894 -6.0429821563 -4.9079013600
-6.7066998278 -5.4885925625 -4.0760462080
-6.1143124375 -5.9919908750 -5.6567639816
-5.5687042500 -5.9254698750 -4.8290107280
-5.6360435938 -5.3542793750 -4.0310121040
-5.0236362500 -5.8473429063 -5.7122788440
-4.5125006250 -5.7439870313 -4.8331294640
-4.4392528125 -5.1955018750 -4.0105738480
-3.3524546875 -5.5879145000 -4.8996509360
-2.7408468750 -5.5032931875 -5.5981393440
-6.1334917813 -4.8805268750 -5.6108310088
-5.5365630938 -4.8142800000 -4.8687345120
-5.0511696875 -4.1219128125 -6.4685114904
-5.5910803750 -4.2621600000 -4.0720569920
-4.9878521875 -4.6970109375 -5.6729397344
-4.4295509375 -4.6371871875 -4.8274046800
-3.9474537500 -3.9460159375 -6.4595095136
-4.5210334375 -4.0586356250 -4.0233704240
-3.8998850000 -4.5573953125 -5.7371259608
-3.4005340625 -4.4559287500 -4.8164084320
-3.9167625000 -4.0061084375 -3.2925667760
-2.8368981250 -4.4098784375 -5.6444272016
-6.6831215438 -3.7867143750 -4.8159939680
-6.1324624688 -3.2182946875 -6.4524195888
-6.7160703475 -3.2187246875 -4.0247174320
-6.1428940000 -3.7995606250 -5.6908083136
-5.6058401250 -3.6697946875 -4.8553680480
-5.5426570000 -3.1328859375 -4.0249635200
-5.0210965625 -3.5868853125 -5.6161685280
-4.4146621875 -3.5390478125 -4.8882531760
-3.9395390625 -2.8264303125 -6.4578080094
-4.4672296875 -2.9739875000 -4.0855788800
-3.8449659375 -3.3996203125 -5.6598867088
-3.2970921875 -3.3547121875 -4.8340102000
-2.8442618750 -2.7034637500 -6.4437544418
-3.4134071875 -2.7797753125 -4.0238496480
-2.7581678125 -3.3095890625 -5.7223114632
-6.1458421875 -6.5845658125 -3.2676600800
-4.9970434375 -6.3840500938 -3.2550448320
-3.9049643750 -6.2119116875 -3.1735638000
-2.8416012500 -6.0980799375 -3.1929788480
-6.1842882188 -5.4497017500 -3.1974602400
-6.1011235313 -6.0341228125 -2.4409339200
-5.0349909375 -5.2998843750 -3.2865181920
-5.0333515625 -5.8448999688 -2.4140844240
-3.8406390625 -5.0974215625 -3.2660151760
-3.9464593750 -5.6262315313 -2.4172706160
-2.8360246875 -4.3800337500 -2.3864707600
-6.1365138750 -4.3033459375 -3.2202169040
-6.0970680938 -4.8710265625 -2.4347428640
-5.0562356250 -4.1754881250 -3.1953231600
-4.9712031250 -4.7706753125 -2.4389134080
-3.9310868750 -4.5418615625 -2.4392760640
-3.3143862500 -3.8955312500 -4.0017923920
-6.1271869063 -3.2074640625 -3.2663519280
-6.1518527813 -3.7331793750 -2.4042150000
-5.0058315625 -3.0228731250 -3.1956469600
-4.9929315625 -3.6013843750 -2.4202236720
-3.9516865625 -2.8655200000 -3.1790036400
-3.8314612500 -3.4704628125 -2.4572793440
-2.8167956250 -2.7550100000 -3.2641889440
-2.7137165625 -3.8539959375 -3.2693049840
-2.2719721875 -5.9755984688 -3.9836854960
-3.2765193750 -5.0512100000 -4.0667596240
-2.7502531250 -5.5153882813 -2.4231249200
-6.6861139406 -2.6693190625 -4.8525704160
-6.1561729375 -2.6433846875 -5.7044014376
-5.6129176563 -2.5747996875 -4.8479724560
-5.0437387500 -2.4896462500 -5.6616080296
-4.4864990625 -2.3945087500 -4.8543448400
-3.9114412500 -2.2826146875 -5.6098065056
-6.1726661250 -2.6575209375 -2.4361028240
-5.0627528125 -2.4608631250 -2.3864448560
-2.7628978125 -4.9387112500 -3.1737062720
-2.7821000000 -3.3060550000 -2.4199128240
-3.9039028125 -6.2456720625 -6.4547249153
-2.2405015625 -6.5384106875 -4.7823964800
-2.2604562500 -4.3264046875 -4.8706773120
-2.2594081250 -3.1578931250 -4.8046609680
-6.7178333381 -6.5618685313 -4.0404023040
-6.6968037406 -4.3755456250 -4.0387703520
-3.2950228125 -2.2587765625 -4.8974750000
-3.8674200000 -2.2925987500 -2.4016893600
-3.3004918750 -6.7111482719 -4.8606654160
-2.7291159375 -6.6497156500 -2.3673536080
-6.1543320000 -6.5548931250 -6.4046802006
-6.1744801875 -5.4256069688 -6.4688184657
-5.0640159375 -5.2457850000 -6.4657137806
-2.7290218750 -4.9726678125 -6.4620886454
-5.0054956250 -6.4098124688 -6.4589883251
-1.6743259375 -4.7908718750 -3.2426497680
-1.5978665625 -5.3462168750 -5.6948286144
-2.2341859375 -4.8779200000 -4.0724066960
-1.6959871875 -6.4642195625 -5.6810943136
-1.1445793750 -6.3749730625 -4.8395536560
-1.0855350000 -5.8375174063 -4.0310768640
-0.5816018750 -6.2980097813 -5.6496598096
0.0004837500 -6.3066917500 -4.8401624000
0.0575796875 -5.7328661563 -4.0291988240
0.5264409375 -6.3247114375 -5.7000314328
1.0711837500 -6.4135292813 -4.8595644960
1.1657971875 -5.8333585000 -4.0836749360
1.6702409375 -6.4410425625 -5.6207289272
-2.1388603125 -5.4520049375 -4.8574662720
-1.6810178125 -4.7550206250 -6.4275514898
-1.0705521875 -5.2301975000 -4.7939237600
-0.5418403125 -5.2242446875 -5.6897384784
-0.4915571875 -4.0872709375 -5.6640572528
-1.1022243750 -4.6652312500 -4.0216996160
-0.5363175000 -4.6495228125 -6.4620675336
0.0117578125 -5.1997750000 -4.8735526560
0.0406350000 -4.6250665625 -4.0589625200
0.6042709375 -5.1830990625 -5.6198740952
1.2116593750 -5.2988362500 -4.9105694720
1.0873893750 -4.7480734375 -4.0861358160
1.7870800000 -5.3371062500 -5.6514989936
-2.1531981250 -3.7546256250 -4.0798152400
-1.6754009375 -4.2052790625 -5.6055893344
-1.0637125000 -4.1433859375 -4.9004539600
-1.1183493750 -3.5779225000 -4.0755281280
0.0724953125 -4.0571843750 -4.8648230080
1.1057450000 -3.5870062500 -4.0040978480
-0.0694584375 -3.5089612500 -4.0550639680
0.6402968750 -4.0903884375 -5.6532008864
1.2036640625 -4.1447162500 -4.8024979840
1.1236840625 -3.0304115625 -4.8130279600
1.6831140625 -4.2411571875 -5.6997555552
-2.2365643750 -2.5981943750 -3.9994351280
-1.7077315625 -3.0994131250 -5.6372077568
-1.1093193750 -3.0074065625 -4.8915300320
-1.0801196875 -2.4682940625 -4.0586516720
-0.5279459375 -2.9241478125 -5.6283136184
0.6023359375 -2.3780746875 -6.4590394855
0.0603075000 -2.9416031250 -4.8586708080
0.5963696875 -2.9811362500 -5.7084942696
1.1772593750 -2.4407606250 -4.0549214960
1.7276862500 -2.5662534375 -3.2066043520
1.6610496875 -3.1161965625 -5.6725382224
-1.6596521875 -5.8837182188 -3.2554592960
-1.7351709375 -6.4277448125 -2.3953558320
-0.5265215625 -5.7356450313 -3.2469498320
-0.5587850000 -6.2908852188 -2.4601287840
0.6230028125 -5.7681006250 -3.2255013200
0.5243446875 -6.3176271875 -2.4079192720
1.6906390625 -5.9101551563 -3.1640958880
1.6300225000 -6.4855368125 -2.3901491280
-1.6484184375 -5.3373212500 -2.4022851520
-0.5177603125 -4.6308312500 -3.2535294480
-0.5799759375 -5.1824809375 -2.4225938880
0.5808359375 -4.6118978125 -3.1782394720
0.5369221875 -5.2020056250 -2.4312846800
1.6358275000 -4.8081121875 -3.2398909920
1.7369581250 -5.3374153125 -2.3789974560
-1.6380446875 -3.6829231250 -3.1727219200
-1.6602165625 -4.2624825000 -2.3827017280
-0.5715640625 -3.5145109375 -3.1709086400
-0.5476856250 -4.1074406250 -2.4021167760
0.5103159375 -3.5144571875 -3.2723357520
0.6271550000 -4.0296643750 -2.4019872560
1.7077584375 -3.7006337500 -3.3023584880
1.7580146875 -4.2322750000 -2.4494045280
-1.7090081250 -3.1061318750 -2.3896828560
0.0245906250 -2.3949521875 -4.0284476080
-0.5139843750 -2.9295496875 -2.4101858720
0.6067165625 -2.4136168750 -3.2683206320
0.5965981250 -2.9550406250 -2.4198739680
2.1937928125 -6.0049204375 -4.0782739520
-1.6293909375 -2.5908171875 -3.2657431840
-0.5421090625 -2.3758575000 -3.2265115760
1.6343896875 -3.1549368750 -2.4660608000
2.2120140625 -4.8698306250 -4.0173347920
2.2223071875 -3.2129331250 -4.8836163600
0.6346934375 -5.7222182813 -6.4399136557
-1.6000703125 -3.6661665625 -6.4588332897
-0.5640390625 -3.5011137500 -6.4215516053
2.2574059375 -4.2991668750 -4.8270938320
2.2582390625 -2.6596037500 -4.0795562000
6.7056753125 -4.9085440625 -4.8658850720
2.2869146875 -6.5185876875 -4.9439208720
2.8996646875 -6.6048690688 -5.6323144912
3.4833225000 -6.7132704294 -4.8763891440
3.3307800000 -6.1596223438 -4.0100946240
4.5279268750 -6.3390398438 -3.9930109360
6.2161740625 -6.5964761406 -6.4370696555
5.6347603125 -6.5289372500 -4.0570974320
2.3640325000 -5.4197226875 -4.8409783760
2.8481856250 -3.9768281250 -6.4741481360
2.8538696875 -5.4146607813 -5.8819176640
3.3413418750 -5.6160378438 -4.8349945520
3.9086193750 -4.6038353125 -5.6028370344
3.4497825000 -5.0504978125 -4.0066105360
3.9021828125 -5.7075082500 -5.6795685680
4.4284893750 -5.7899889688 -4.8391003360
4.5336378125 -5.2382331250 -4.0522922400
4.9888734375 -5.9019676875 -5.6653123016
5.5537725000 -5.9634832188 -4.8747442400
6.1852678125 -5.4768468438 -6.4390311064
5.6506300000 -5.4277636875 -4.0514762640
6.1292603125 -6.0392411563 -5.6250341720
2.3207503125 -3.7450446875 -4.0048231600
2.7737284375 -4.4940375000 -5.7593567736
3.3064581250 -4.5065075000 -4.8528424080
3.4209859375 -3.9561612500 -4.0630683040
3.9573975000 -3.4762275000 -5.6899029688
4.4962546875 -4.6755915625 -4.8784744160
5.0351118750 -4.1627628125 -6.4414159582
4.4834353125 -4.1182712500 -4.0612032160
5.0455931250 -4.7613362500 -5.6978982384
5.5934668750 -4.8619025000 -4.8643437840
5.6019056250 -4.2979978125 -4.0376953360
6.1601665625 -4.8957784375 -5.6876920624
2.7809846875 -2.8355006250 -6.4650839896
2.8025384375 -3.3506675000 -5.6532695320
3.3807406250 -3.4033828125 -4.9087691440
3.9340431250 -2.8977162500 -6.4267216551
3.3409253125 -2.8584921875 -4.0548826400
3.9203637500 -4.0766553125 -6.4471687185
4.5079318750 -3.5580081250 -4.8584376720
4.4830859375 -3.0023675000 -4.0365037520
5.0851128125 -3.6024325000 -5.6521984016
5.6313606250 -3.7582537500 -4.8488790960
5.5898387500 -3.1685759375 -4.0710337840
6.2125862500 -3.7581462500 -5.6380936736
2.7413843750 -6.0961637500 -3.2403443120
2.8239175000 -6.6379165844 -2.3911593840
3.8974393750 -6.3020034063 -3.2818295680
5.0790659375 -6.4256324375 -3.2152951440
6.1791000000 -6.5582578750 -3.2053480080
2.8089481250 -4.9932271875 -3.3196235040
2.8666487500 -5.5379216250 -2.4420607440
3.9945253125 -5.1320903125 -3.2074462320
3.9154590625 -5.7348455000 -2.4964332400
5.0964271875 -5.3016984375 -3.2140258480
5.0131550000 -5.8586425000 -2.4151335360
6.1849453125 -5.4340981250 -3.1999340720
6.1719378125 -6.0012318438 -2.3995134240
2.8894790625 -3.8550978125 -3.2114354480
2.7824896875 -4.4599600000 -2.4745832160
3.9650971875 -3.9850250000 -3.1833166560
3.8942009375 -4.5677421875 -2.4296138720
5.0407690625 -4.2010193750 -3.2360442480
5.0698075000 -4.7444453125 -2.3814194800
6.1771112500 -4.3270631250 -3.2507577200
6.1852140625 -4.8594031250 -2.3974670080
2.8022293750 -2.6922165625 -3.1985870640
2.7746825000 -3.2784543750 -2.4461665280
3.9033921875 -2.8769553125 -3.2578813200
3.9577603125 -3.4067153125 -2.3871701680
5.0469100000 -3.0803721875 -3.2360442480
5.0726831250 -3.6518825000 -2.4183844880
6.1491881250 -3.2076387500 -3.2431030880
6.1920000000 -3.7670015625 -2.4350148560
3.3820978125 -2.3099868750 -4.8744852000
3.9464728125 -2.2988606250 -5.6884290312
4.4777378125 -2.4555687500 -4.8468844880
5.0800468750 -2.5134440625 -5.6139304224
5.6428765625 -2.5752968750 -4.8078989680
6.1735637500 -2.6887362500 -5.6581589120
3.9546428125 -2.3351150000 -2.4242258400
5.0558728125 -2.5348365625 -2.4198869200
6.1790193750 -2.6494046875 -2.4366986160
2.7522284375 -6.0690670313 -6.4580077292
5.0256921875 -5.3462168750 -6.4510745236
6.1702446875 -4.3030234375 -6.4592096748
-6.6726358594 -2.1005903125 -4.0309343920
-5.5722732500 -2.0015021875 -4.0446764640
-4.4394006250 -1.8384918750 -4.0537687680
-2.7943012500 -1.5637218750 -6.4336417792
-3.3471871875 -1.7087662500 -4.0672647520
-2.7299625000 -2.1401368750 -5.6612920008
-6.7091947684 -1.0124350000 -4.0676015040
-6.1567117813 -1.4954325000 -5.6350875144
-5.5776092813 -1.4628465625 -4.8721149840
-5.6080089375 -0.9010515625 -4.0659695520
-5.0147809375 -1.3710684375 -5.6626234664
-4.4725375000 -1.2529931250 -4.8231823280
-4.4636687500 -0.7003759375 -4.0237589840
-3.9277409375 -1.1926721875 -5.6737142640
-3.3681496875 -1.1297309375 -4.8435169680
-2.7615809375 -0.4396481250 -6.4746010286
-3.3188206250 -0.5710803125 -4.0400266960
-2.8179243750 -0.9935956250 -5.6432226656
-6.1120146250 -0.3897143750 -5.6795815200
-5.5723646250 -0.3042921875 -4.8292050080
-5.0456334375 0.2937706250 -6.4673063715
-5.6254360313 0.2477203125 -4.0157805520
-5.0322900000 -0.2739906250 -5.6949464776
-4.4947362500 -0.1400725000 -4.8474025680
-4.4726046875 0.4198950000 -4.0401044080
-3.9267600000 -0.0907971875 -5.6522294864
-3.3814662500 -0.0051196875 -4.8270679280
-3.3523337500 0.5645362500 -4.0409980960
-2.8226275000 0.1152400000 -5.6609746768
-6.1610185000 1.3191728125 -6.4472868407
-6.1649046250 0.7433087500 -5.6634821840
-5.5863127500 0.7828284375 -4.8859606720
-5.0923421875 1.4757062500 -6.4239288154
-5.6037774688 1.3391543750 -4.0516187360
-5.0227493750 0.8708978125 -5.6989110848
-4.4854106250 0.9799834375 -4.8517673920
-4.5319312500 1.5344146875 -4.0394050000
-3.9186168750 1.0147059375 -5.6696304984
-3.3786443750 1.1335203125 -4.8378698960
-2.8046078125 1.2058946875 -5.6211161920
-6.1143218438 -2.0812134375 -3.2231440560
-4.9910368750 -1.9248278125 -3.2460431920
-3.8944696875 -1.7306021875 -3.2069022480
-2.8325712500 -1.5856921875 -3.1805449280
-2.7160950000 -2.1958487500 -2.4562431840
-6.1560976875 -0.9400203125 -3.2329487200
-6.1587260625 -1.5208831250 -2.4441201120
-5.0469234375 -0.8158175000 -3.2514053200
-5.0379875000 -1.3665265625 -2.4289274160
-3.8845259375 -0.6343440625 -3.2516643600
-3.9506115625 -1.1672753125 -2.3896828560
-2.7790900000 -0.4322709375 -3.2101272960
-2.7699659375 -1.0075706250 -2.4154055280
-6.2022165313 0.1599734375 -3.2592930880
-6.1332230313 -0.3837884375 -2.4202366240
-5.0432415625 0.2953965625 -3.2571301040
-5.0380009375 -0.2544256250 -2.4349760000
-3.9127312500 0.4967171875 -3.2351376080
-3.9494021875 -0.0814446875 -2.4420477920
-6.1478658750 1.3180171875 -3.2060862720
-6.1586682813 0.7084921875 -2.4486533120
-5.0554696875 1.4310937500 -3.1899092240
-5.0357837500 0.8397093750 -2.4350148560
-2.8180721875 1.7839356250 -3.2502396400
-3.9232125000 1.0470096875 -2.4147449760
-2.7846800000 0.6695503125 -3.2395283360
-2.8325712500 1.2230409375 -2.4271141360
-2.2425037500 1.2803653125 -4.8183771360
-2.2483356250 1.8522518750 -4.0465804080
-6.2255104375 1.8917581250 -5.6326913944
-5.6298730938 1.8890975000 -4.8936412080
-5.0483746875 2.0356468750 -5.6301877728
-4.4512525000 2.0777868750 -4.8927216160
-3.8813546875 2.1457671875 -5.6880443568
-3.3804987500 1.6950734375 -4.0483936880
-6.2124129063 1.8641037500 -2.3987233520
-5.0434968750 2.0171434375 -2.4440164960
-3.9435031250 1.5960659375 -3.2599147840
-3.8948056250 2.1307306250 -2.4180218320
-2.8473525000 0.1151056250 -2.3923898240
-2.2866459375 -1.4957684375 -4.0197309120
-2.2719184375 0.1323325000 -4.8341656240
-6.6735138656 -0.4407231250 -4.8592018400
-6.7058762166 0.6989381250 -4.8398515520
-6.6925369313 1.2533021875 -4.0351826480
-6.1157489063 -2.0377296875 -6.4536469203
-6.2102978438 0.1858675000 -6.4629227542
-3.9563090625 1.5749556250 -6.4648908235
-2.2115975000 -0.9676746875 -4.9050389680
-2.2157362500 -0.4318678125 -4.0425134800
-2.2248737500 0.7057912500 -4.0425393840
1.6717459375 -1.4280971875 -3.1710899680
-1.6755084375 0.8346031250 -3.2221208480
-2.1712043750 -2.0456175000 -4.8437760080
-1.7129050000 -1.4223593750 -6.4529846846
-1.6230618750 -2.0058693750 -5.7063817984
-1.1392984375 -1.2906584375 -4.0027378880
-0.5836175000 -1.8171665625 -5.6853166656
-0.5091737500 -1.2801906250 -3.3084588800
-1.1106496875 -1.8673421875 -4.7894035120
-0.0329890625 -1.8279703125 -4.8288941600
0.0666903125 -1.2453337500 -4.0614234000
0.5096575000 -1.8378737500 -5.6372142328
1.1155678125 -1.8966628125 -4.9042748000
1.6631459375 -1.4582643750 -6.4572228380
1.1397284375 -1.3529815625 -4.0728341120
1.6996825000 -2.0251521875 -5.6276996936
-1.6328578125 -0.8534156250 -5.6657500792
-1.0856962500 -0.7629140625 -4.8435169680
-0.5813734375 -0.1631446875 -6.4705817898
-0.5798012500 -0.1862303125 -3.2355779760
-0.5238743750 -0.7429996875 -5.6708648240
0.0078206250 -0.6639468750 -4.8227937680
0.5616606250 -0.7501753125 -5.6511492896
-0.0299656250 -0.0787168750 -4.0568772480
1.1548859375 -0.7719978125 -4.8929677040
1.0974406250 -0.2668284375 -3.9932570240
1.7122196875 -0.8798606250 -5.7094889832
-1.7174737500 0.2858693750 -5.6435386944
-1.1439343750 -0.1773750000 -4.0538205760
-0.5442590625 0.9562125000 -6.4232893751
-1.1301340625 0.3602459375 -4.8912709920
-0.5498625000 0.3762768750 -5.6387749488
0.0391837500 0.4592534375 -4.8839919680
0.5401203125 0.9895106250 -6.4351275031
-0.0264046875 0.9959471875 -4.0169591840
0.6013953125 0.3897546875 -5.6967869568
1.1323512500 0.2813275000 -4.8455115760
1.7041975000 0.2992128125 -5.6823726760
1.0961775000 0.8450843750 -4.0380579920
-1.7064415625 1.3925012500 -5.6677408016
-1.1057584375 0.9083884375 -4.0462048000
-0.5598465625 2.1369925000 -6.4439142694
-1.1372559375 1.4713928125 -4.8393205200
-0.6016640625 1.5483090625 -5.6990781656
-0.0401109375 1.5332456250 -4.8901053120
-0.0107231250 2.0674131250 -4.0392366240
0.5621309375 1.5611821875 -5.6420440336
1.0986768750 1.4095937500 -4.8250603680
1.6733987500 1.3615546875 -5.6134874640
-1.6969815625 -1.4620134375 -3.2493977600
-0.5592956250 -0.7490734375 -2.4219203840
0.6047546875 -1.2962350000 -3.1933803600
0.4961393750 -1.8727843750 -2.4239538480
1.7143293750 -0.8238531250 -2.4381362880
-1.6222287500 -0.8824271875 -2.4676020880
-0.5208643750 0.3816921875 -2.4417758000
-0.5877831250 0.9619368750 -3.1811018640
0.5267365625 -0.1756281250 -3.2321586480
1.6931518750 -0.2767318750 -3.2501878320
-1.7295003125 1.3996768750 -2.4035933040
-1.6912034375 -0.2784921875 -3.1853760240
-0.5539206250 2.1050918750 -3.2244392560
-1.6920231250 0.2885031250 -2.3896440000
-0.5827843750 1.5470593750 -2.4214411600
0.5457237500 0.9810450000 -3.2276254480
1.6923321875 0.8309615625 -3.2737863760
1.6694481250 0.2845390625 -2.4315566720
-1.7010262500 1.9477790625 -3.2201391920
0.5693200000 2.1025790625 -3.2437247840
1.1055568750 2.0082612500 -4.1065999760
1.6640193750 1.3569187500 -2.3885819360
2.1921534375 -1.5580243750 -4.0356618720
1.6431912500 1.8929540625 -3.2680097840
2.2365912500 1.9019706250 -4.0448707440
-1.6546803125 -2.0123731250 -2.4532642240
-0.5759178125 -1.8028556250 -2.4196019760
1.6636834375 -2.0024562500 -2.4091108560
0.5501581250 -0.7159365625 -2.4071810080
0.6028600000 0.4018350000 -2.4515675120
0.5536787500 1.5439553125 -2.4324633120
-1.1395671875 2.0268856250 -4.0003935760
0.5355515625 -0.1886893750 -6.4674643341
2.2192703125 0.1173093750 -4.8127041600
-1.6638446875 -0.2787475000 -6.4313398202
1.6766237500 -0.2734531250 -6.4454562050
2.8554150000 -2.1251137500 -2.4180088800
2.2555381250 -1.0047084375 -4.8796271440
2.2400581250 -0.4637818750 -4.0400137440
2.2501765625 1.3278803125 -4.8167969920
6.6901012500 -1.5729937500 -4.8800545600
6.6715575000 0.1149175000 -4.0665653440
2.3079443750 -2.0858090625 -4.8942499520
2.7929843750 -1.6030668750 -6.4423062786
2.8369384375 -2.2068137500 -5.7293055432
3.3506675000 -1.7405593750 -4.0436014480
4.4849940625 -1.8691159375 -4.0814730960
6.1996996875 -2.1377987500 -6.4636489987
5.6077509375 -2.0066353125 -4.0302867920
2.8228962500 -0.4785900000 -3.2580237920
2.8335387500 -1.0196106250 -5.6793988968
3.3503584375 -1.1848381250 -4.8237392640
3.3675181250 -0.5699784375 -4.1023646720
3.9273781250 -1.2190634375 -5.6110719160
4.5064134375 -1.2793440625 -4.8237392640
5.0587753125 -0.8632384375 -6.4226441065
4.4883668750 -0.7089221875 -4.0400785040
5.0281646875 -1.4566115625 -5.6822094808
5.6026850000 -1.4423006250 -4.8483351120
6.1637006250 -0.9404637500 -6.4168765809
5.6279475000 -0.8898178125 -4.0066752960
6.1403731250 -1.5547321875 -5.7035789856
2.2416034375 0.7240528125 -4.1004736800
2.7841828125 0.0625381250 -5.6223427464
3.3621296875 0.0284740625 -4.8220166480
3.9268406250 0.4037162500 -6.4267662100
3.3721540625 0.5974312500 -4.0298075680
3.8734265625 -0.1651334375 -5.6726055728
4.4681837500 -0.1525828125 -4.8682164320
4.5045725000 0.3737103125 -3.9940600480
5.0061540625 -0.2748775000 -5.6858567640
5.5867078125 -0.3956806250 -4.9175117440
5.5892743750 0.1607259375 -4.0798929520
6.1988531250 -0.3711706250 -5.6329659768
2.7585037500 1.1213996875 -5.6767074712
3.3446743750 1.1395268750 -4.8818807920
3.8779953125 1.6037118750 -6.4231054567
3.3537312500 1.6749709375 -3.9955754320
3.8972512500 1.0129187500 -5.7033976576
4.4452190625 0.8929621875 -4.8924237200
4.4390512500 1.4426634375 -4.0432517440
5.0471250000 0.8928681250 -5.6550413656
5.5854312500 0.7443837500 -4.8345800880
5.5623859375 1.3089200000 -4.0535226800
6.1551275000 0.7250606250 -5.6341070480
2.7802053125 -1.5730878125 -3.2656784240
3.9286546875 -1.7749190625 -3.2646940720
5.0361196875 -1.9818296875 -3.2452790240
6.1797853125 -2.0978087500 -3.2567156400
2.7787540625 0.0559268750 -2.3878954800
2.8184081250 -1.0382753125 -2.4189673280
3.8988100000 -0.7039637500 -3.2541122880
3.9291518750 -1.2510581250 -2.4098879760
5.0370737500 -0.8681296875 -3.2394506240
5.0522312500 -1.4223056250 -2.4339657440
6.1967568750 -0.9679837500 -3.2142848880
6.1390428125 -1.5447212500 -2.4366597600
2.7698315625 1.7059846875 -3.2187921840
2.7822881250 0.5785650000 -3.2653546240
3.9157815625 0.4119668750 -3.2213955360
3.9055825000 -0.1471675000 -2.4282280080
5.0645265625 0.3113603125 -3.1843269120
5.0028753125 -0.2974928125 -2.4613592240
6.1338828125 0.1733706250 -3.2121607600
6.1493359375 -0.4032056250 -2.4218167680
3.9197859375 1.6107800000 -3.1771903600
3.8787746875 1.0006234375 -2.4712804560
5.0156678125 1.4433756250 -3.2299827120
5.0444912500 0.8856253125 -2.4181902080
6.1440550000 1.2548743750 -3.2917378480
6.1983693750 0.7366168750 -2.3996040880
6.6623931250 1.8189134375 -4.8233636560
3.3575609375 2.1813228125 -4.9047410720
3.9621678125 2.1856765625 -5.6613852552
4.4869156250 2.0008437500 -4.8295547120
5.0478506250 1.9644953125 -5.6763953280
5.5789140625 1.9025887500 -4.8027440720
6.1231328125 1.8051668750 -5.6789727760
3.9297296875 2.1994500000 -2.4326834960
5.0657896875 2.0073475000 -2.4192652240
6.1257665625 1.7863678125 -2.4153537200
2.7807428125 1.1333456250 -2.4291346480
2.7759321875 1.7128646875 -6.4166211674
5.0548112500 0.3147868750 -6.4270028430
-3.3619012500 2.2834478125 -4.8181958080
-2.8084643750 2.2891050000 -5.6681319520
-6.7151274381 6.3139856250 -4.8464311680
-6.1579722188 6.2551562500 -5.7101301072
-5.6310676875 6.4255571875 -4.8600955280
-5.0377725000 6.4504031250 -5.6585047304
-4.4791621875 6.5664493750 -4.9156984640
-3.8614134375 6.6408259375 -5.6360252392
-6.2065340000 6.3293715625 -2.3937886400
-5.0680606250 6.5019896875 -2.4190450400
-3.8835853125 6.6337846875 -2.4361028240
-3.9512028125 2.7078443750 -3.2002449200
-5.0272912500 2.5920937500 -6.4620209064
-5.5905227188 2.4360171875 -4.0724066960
-3.9650300000 2.7502262500 -6.4194049408
-4.5050293750 2.6178265625 -4.0462177520
-2.8325846875 2.8582637500 -6.4511632448
-6.1774149375 2.9735709375 -5.6902500824
-5.6484074375 3.0508365625 -4.7959572240
-5.6416752500 3.6270768750 -4.0268027040
-5.1287981250 3.1448050000 -5.6558573416
-4.5434203125 3.1821478125 -4.8623103200
-3.8747165625 3.8424128125 -6.4645251756
-4.4417118750 3.7316609375 -4.0454406320
-3.9667500000 3.3029240625 -5.6138553008
-3.3549943750 3.3729468750 -4.8972677680
-3.3584075000 3.9261284375 -4.0466581200
-2.7839140625 3.4330125000 -5.6780764976
-6.1783380938 4.6742343750 -6.4336197608
-6.1404322500 4.1009368750 -5.6836549240
-5.5842635313 4.1861037500 -4.8486848160
-5.6456675313 4.7438137500 -4.0277093440
-5.0262296875 4.2268328125 -5.6809375944
-4.5159809375 4.3310137500 -4.7734466480
-4.5138712500 4.9150746875 -4.0100946240
-3.9948209375 4.4102009375 -5.6666204536
-3.4318703125 4.4820781250 -4.8643049280
-3.3067940625 5.0270762500 -4.0330067120
-2.8652378125 4.5986081250 -5.6180115976
-6.1904654375 5.2872128125 -5.7083777016
-5.6227579375 5.2478812500 -4.9094167440
-5.5563175625 5.8231406250 -4.1199405360
-5.0090968750 5.3772575000 -5.6554972760
-4.4603900000 5.4425368750 -4.8479336000
-4.5193134375 6.0309918750 -4.0497018400
-3.9356825000 5.5219121875 -5.7324658312
-3.4216175000 5.6172378125 -4.7891703760
-3.4036918750 6.1899171875 -4.0077114560
-2.8961575000 5.6887790625 -5.6834723008
-6.1594691563 2.4115878125 -3.2531538400
-5.0671871875 2.5908575000 -3.2081326880
-3.4166590625 2.8518137500 -4.0272948800
-2.8266184375 2.8687181250 -3.2666239200
-6.2030765313 3.4655715625 -3.2350598960
-6.1451447813 2.9450028125 -2.3738684640
-5.0455528125 3.6700365625 -3.2972424480
-5.0699821875 3.1668290625 -2.4052252560
-3.9182809375 3.8968078125 -3.1981596480
-3.9473328125 3.2848775000 -2.4630947920
-2.8246028125 3.9988521875 -3.1635260000
-2.8016784375 3.4038665625 -2.4158458960
-6.1688686875 4.6528553125 -3.1931472240
-6.1487299063 4.0569156250 -2.4657629040
-5.0591650000 4.7548056250 -3.2318348480
-5.0603878125 4.1990575000 -2.3966639840
-3.9011615625 4.9857425000 -3.2904426480
-3.9853475000 4.4458103125 -2.4035414960
-2.7724787500 5.1887293750 -3.1976674720
-2.8285265625 4.6026662500 -2.4533419360
-6.1292912188 5.7856768750 -3.2773740800
-6.2063095938 5.2486471875 -2.4439517360
-5.0747793750 5.9150262500 -3.1790165920
-5.0226015625 5.3222443750 -2.4423845440
-3.9741675000 6.0639943750 -3.2103604320
-3.8902906250 5.4988803125 -2.4032954080
-2.8081150000 6.2698031250 -3.2959472480
-2.8378790625 5.7599978125 -2.4105355760
-2.2732353125 2.4316231250 -4.8260706240
-2.3009971875 4.1173037500 -4.0211426800
-2.3282215625 5.7586809375 -4.8463405040
-2.8016515625 2.3326962500 -2.3983995520
-2.2490612500 2.9962534375 -4.0339004000
-2.2439281250 3.5602656250 -4.8386988240
-2.2472471875 4.6392834375 -4.9077459360
-6.7113982766 4.0807268750 -4.9168770960
-6.6870078031 5.7276268750 -4.0886614560
-2.8270350000 4.0388690625 -6.4145792846
-5.1217568750 4.8094425000 -6.4572036690
-2.2212993750 5.1885546875 -4.0660990720
-2.2000009375 6.3035178125 -4.0282662800
1.1066587500 2.6309550000 -4.8128854880
-1.6938237500 3.0170815625 -6.4756160146
-1.7038212500 2.4941746875 -5.6251287216
-1.1199887500 2.5531653125 -4.8614166320
-1.1395403125 3.1147318750 -4.0452722560
-0.5631656250 2.7034503125 -5.6691214848
-0.0168371875 2.6465559375 -4.8222627360
-0.0312018750 3.2249596875 -4.0615140640
0.5330790625 2.6291275000 -5.6473530584
1.6266228125 2.4299434375 -5.6566435280
1.6594506250 3.0116393750 -6.4288803650
1.1256459375 3.7385543750 -4.8825024880
-1.7131200000 4.1607471875 -6.4547273762
-1.6782496875 3.5976353125 -5.6766776816
-1.1472131250 3.6936596875 -4.8268218400
-1.1523731250 4.2608028125 -4.0555043360
-0.5747621875 3.7744593750 -5.6162086792
0.0067590625 4.3776956250 -4.0456478640
0.0008465625 3.8151750000 -4.8173280240
0.5191846875 3.7082393750 -5.6497388168
1.0907353125 4.2774787500 -4.0190315040
1.6733315625 3.6051468750 -5.6802550240
-1.6778465625 5.3350503125 -6.4233150201
-1.6754009375 4.7342596875 -5.6701900248
-1.1261296875 4.8417059375 -4.8229362400
-1.1509084375 5.4158903125 -4.0459198560
-0.5888178125 4.8552643750 -5.6773136248
-0.0307046875 4.9369106250 -4.8605229440
0.5427003125 5.3924284375 -6.4664262054
-0.0227093750 5.4852412500 -4.0407390560
0.5468659375 4.8633537500 -5.6375522800
1.1405212500 4.8213346875 -4.9000913040
1.0653787500 5.3269340625 -4.0275150640
1.7061996875 4.7757546875 -5.6990004536
-1.7548703125 5.8775893750 -5.6094788200
-1.1329425000 5.9401006250 -4.9108544160
-0.5810240625 6.5649712500 -6.4556280582
-1.0948203125 6.4748862500 -4.0615399680
-0.5359143750 6.0178096875 -5.6445631976
0.0386193750 6.0357756250 -4.8614295840
-0.0294550000 6.5791881250 -4.0166871920
0.5890059375 5.9895103125 -5.7072366304
1.1173281250 5.9206431250 -4.8129632000
1.1815056250 6.4810003125 -4.0328253840
1.6503265625 5.9077565625 -5.7061849280
-1.6952481250 3.1024634375 -3.2188439920
-1.7116015625 2.5312487500 -2.4437704080
-0.5796668750 3.2361262500 -3.2243097360
-0.6000784375 2.6649653125 -2.4329684400
1.1208487500 3.1923468750 -4.0394179520
0.5289671875 2.6386278125 -2.3757853600
1.6499771875 3.0060628125 -3.2073555680
-1.7058234375 4.1908740625 -3.2531667920
-1.6978281250 3.6634790625 -2.3875328240
-0.5828381250 4.3162190625 -3.2636320080
-0.5687825000 3.7907456250 -2.4023369600
0.5288596875 4.2859981250 -3.1899998880
0.5397037500 3.7035228125 -2.4197444480
1.6541696875 4.1986543750 -3.1821898320
1.6713428125 3.5906075000 -2.4603619200
-1.6911631250 5.3149478125 -3.1829021920
-1.6788140625 4.7311421875 -2.4035674000
-0.5776378125 5.3799181250 -3.2435305040
-0.5764956250 4.8497146875 -2.3771064640
0.5401740625 5.4829031250 -3.2006852880
0.5598734375 4.8943943750 -2.4725886080
1.6905315625 5.3376303125 -3.2993924800
1.7052725000 4.7961393750 -2.4579917040
-1.6485662500 6.4679659375 -3.2239082240
-1.6945359375 5.8986728125 -2.4236170960
-0.5687556250 6.5434846875 -3.1734601840
-0.5382793750 5.9460668750 -2.4460240560
0.5932656250 6.5815531250 -3.2956882080
0.5847865625 6.0683212500 -2.4264665360
1.7571412500 6.4099562500 -3.2567674480
1.6430568750 5.8729265625 -2.4269975680
2.2192837500 2.4486753125 -4.9038732880
2.2238525000 2.9684781250 -4.0102370960
2.1747787500 4.0343809375 -4.0282015200
2.1900303125 5.7559396875 -4.8602380000
0.5322728125 3.1632681250 -3.2650049200
1.6627562500 2.4362187500 -2.4204438560
2.2253440625 4.6197721875 -4.8151909440
0.5166315625 4.2884706250 -6.4417199416
1.6077700000 4.1874475000 -6.4410206631
-0.5681912500 5.4487315625 -6.4324239026
0.5831471875 6.5663284375 -6.4755750280
6.7129315625 4.5900215625 -4.0091102720
2.2517084375 3.5074159375 -4.8927475200
4.0041734375 6.5874790625 -5.7504173032
4.5265696875 6.5400984375 -4.8274953440
5.0459828125 6.4169034375 -5.6867012344
5.6409415625 6.3449456250 -4.8723092640
6.1673825000 6.2355778125 -5.7237374784
3.9697196875 6.6055659375 -2.4136829120
5.0419515625 6.4056159375 -2.4873150320
6.1371212500 6.2786181250 -2.4596366080
6.7151756250 2.4113862500 -4.0674719840
6.7045868750 2.9770109375 -4.8557048000
6.6675128125 3.5495021875 -4.0476295200