ITEM: TIMESTEP
93000
# source: voids-relax.93000.cfg
ITEM: NUMBER OF ATOMS
2298
ITEM: BOX BOUNDS pp pp pp
-6.7187500000 6.7187500000
-6.7187500000 6.7187500000
-6.4760000000 6.4760000000
ITEM: ATOMS x y z
-6.6890873906 -6.4323055000 -4.0420860640
-5.6071731250 -6.1984594063 -4.0991007680
-5.1100259375 -6.6744290938 -5.6808793104
-4.4949646875 -6.6387561594 -4.8862197120
-3.9417562500 -5.4072782188 -5.6638526112
-4.5347531250 -6.0806756875 -4.0816673760
-3.9475478125 -6.5638841563 -5.7063999312
-3.3978600000 -6.4285954063 -4.8561710720
-3.3949843750 -5.8932884063 -4.0159230240
-2.8206925000 -6.4038354688 -5.6415350200
-6.1867755000 -5.1389434375 -6.4281303146
-6.2105047813 -5.7566666563 -5.7326393880
-5.6823384688 -5.6312759688 -4.9050389680
-5.0642443750 -5.0311075000 -6.4652245188
-5.6022281250 -5.1138018750 -4.0196402480
-5.0651043750 -5.5974322813 -5.6582249672
-4.5074615625 -5.5106636563 -4.8614425360
-4.4760850000 -4.9466931250 -4.0645318800
-3.3558140625 -4.7845965625 -4.0731838160
-2.8058306250 -5.2486068750 -5.6741598128
-6.1746844375 -4.5454493750 -5.6910323832
-5.0449346875 -4.4479334375 -5.6961264048
-5.0689340625 -3.8777937500 -6.4698182306
-5.6367813125 -4.0286565625 -4.0672647520
-4.5055668750 -4.3814178125 -4.8564301120
-3.9154321875 -4.3244293750 -5.6586912392
-3.9756993750 -3.7506078125 -6.4476697018
-4.4983375000 -3.8510262500 -4.0022975200
-3.3804987500 -4.2101434375 -4.8436982960
-3.3645350000 -5.3549243750 -4.8601991440
-3.9177165625 -3.7413896875 -3.2458100560
-2.8127375000 -4.1079109375 -5.6561358096
-6.7152298856 -3.6028087500 -4.8937318720
-6.1696709063 -3.4108003125 -5.7835925560
-5.6489315000 -3.4554262500 -4.8387765360
-5.6100044063 -4.5708059375 -4.8896001840
-5.5904232813 -2.8456728125 -4.1188266640
-5.0842931250 -3.3248809375 -5.6291049856
-4.4982031250 -3.3133112500 -4.8493453680
-3.9694509375 -2.5909381250 -6.4672032995
-4.5105925000 -2.7297609375 -4.0938422560
-3.9744093750 -3.1740046875 -5.6891944944
-3.4085965625 -3.0884078125 -4.8685013760
-3.3907112500 -2.5546971875 -4.0041885120
-2.8402037500 -3.0274284375 -5.6725835544
-6.1288437500 -6.3141791250 -3.2291149280
-5.0665690625 -6.1690877188 -3.2107878480
-3.9843665625 -5.9613278438 -3.2525062400
-3.9239112500 -6.5273422188 -2.4646101760
-2.8086390625 -5.8319583125 -3.2653028160
-2.8185021875 -6.3663435000 -2.4197833040
-6.2120541250 -5.1822390625 -3.2812596800
-6.2128120000 -5.7282181250 -2.4771606640
-5.0325990625 -5.0433490625 -3.2398132800
-5.0950700000 -5.5924684688 -2.4262463520
-3.9183346875 -4.8564065625 -3.2328451040
-3.9113606250 -5.4205638750 -2.4117919200
-2.8304615625 -4.1291959375 -2.3829089600
-6.2244582813 -4.0735781250 -3.2462763280
-6.1212085625 -4.6282646875 -2.4320618000
-5.1108993750 -3.8643696875 -3.2669218160
-5.0596621875 -4.4492771875 -2.4941148320
-3.9898490625 -4.3033190625 -2.4326705440
-3.3594421875 -3.6441693750 -4.0522145280
-6.1383884063 -2.9865650000 -3.2844070160
-6.1871154688 -3.5244681250 -2.4026089520
-5.0691759375 -2.7944893750 -3.2246076320
-5.0112871875 -3.3558275000 -2.3902656960
-3.9957481250 -2.6007609375 -3.2376762000
-3.9149484375 -3.1710753125 -2.4606209600
-2.8143768750 -2.4587803125 -3.2534905920
-2.8049303125 -3.5908493750 -3.2167587200
-2.2405687500 -5.1821584375 -4.8963999840
-2.8179915625 -4.6670990625 -3.2213696320
-2.2791881250 -2.9337018750 -4.8453043440
-6.6932995094 -2.5096546875 -4.8666621920
-6.1782843438 -2.4909631250 -5.8122009336
-5.0324109375 -2.2759228125 -5.6327198888
-6.1670989688 -2.4396587500 -2.4653872960
-5.0752093750 -2.2510768750 -2.3957443920
-2.8257987500 -5.2613053125 -2.4693376560
-2.8415071875 -2.9967506250 -2.4335253760
-3.9137525000 -5.9641752500 -6.4414786458
-2.2543287500 -4.6394984375 -4.0340817280
-2.2591393750 -6.2644966563 -4.8166156640
-2.2631437500 -3.5133418750 -4.0874051120
-6.7164143744 -4.7338028125 -4.8769072240
-5.6574589375 -2.2592334375 -4.8863362800
-2.7890606250 -5.8209167188 -6.4435852886
-2.7886306250 -4.6787493750 -6.4473861826
-2.8506043750 -2.4386643750 -6.4364355256
-2.2350862500 -4.0921487500 -4.8611575920
-2.2371287500 -2.3878168750 -4.0067271040
-1.6872259375 -4.6159693750 -3.2120053360
-1.6195815625 -5.1934728125 -5.6609500680
-1.7018056250 -5.7521825625 -6.4558237630
-2.2274403125 -5.7052131250 -4.0294449120
-1.7280221875 -6.3206492813 -5.6506143720
-1.1321765625 -6.3281621875 -4.8990033360
-1.1182956250 -5.7785953125 -4.0615658720
-0.5371775000 -6.3577529063 -5.6685464160
0.0084656250 -6.5148319063 -4.8589168960
0.6360640625 -5.9802357500 -6.4740737268
-0.0115025000 -5.9476995313 -4.0953576400
1.1582318750 -6.6367906563 -4.8219130320
0.5995140625 -6.5179816563 -5.6513578168
1.1339368750 -6.0529232188 -4.0674719840
-1.0868250000 -5.2093559375 -4.8473248560
-0.5031000000 -5.2701203125 -5.6902604440
-0.5712953125 -4.1596318750 -5.6987686128
-1.1704196875 -4.6330618750 -4.0716425280
0.0245234375 -5.3571281250 -4.8300209840
-0.0065440625 -4.7886815625 -4.0343278160
0.5790084375 -5.4259724688 -5.6512943520
1.1692103125 -5.5474326875 -4.9168511920
1.1176909375 -4.9881343750 -4.0695702080
1.8100581250 -5.5711875000 -5.6992879880
-1.6865943750 -3.5136778125 -6.4587909366
-1.6896715625 -4.0806328125 -5.6694724840
-1.0942156250 -4.0691706250 -4.8704830320
-0.5843565625 -3.5465459375 -6.4333671968
-1.1612150000 -3.5346268750 -4.0055743760
-0.0173075000 -4.2418021875 -4.8523761360
1.1248934375 -3.8281690625 -4.0838174080
-0.0124296875 -3.6872903125 -4.0288491200
0.5326759375 -4.3158831250 -5.6720810168
1.0917162500 -4.3998675000 -4.8389967200
1.1169518750 -3.2385853125 -4.8461591760
1.6433525000 -4.5640200000 -5.6491365488
-1.7122868750 -2.3799290625 -6.4577992020
-1.7296078125 -2.9393053125 -5.6675776064
-1.1578287500 -3.0023809375 -4.8764150480
-1.0991337500 -2.4457190625 -4.0678605440
-0.5736603125 -2.9785965625 -5.6584114760
-0.0291056250 -3.1292712500 -4.8206048800
0.5206493750 -3.2399559375 -5.6270261896
1.0868250000 -2.7021065625 -4.0120244720
1.6482571875 -2.7964109375 -3.2064748320
1.6342150000 -3.4493793750 -5.6731935936
-1.6591415625 -5.7514690313 -3.2180150640
-1.7064281250 -6.3332039375 -2.4487051200
-0.5498087500 -5.7860625313 -3.2152951440
-0.5933059375 -6.3644165625 -2.4502205040
0.5247075000 -6.0172130625 -3.2727761200
0.6000784375 -6.5379390313 -2.3594917440
1.6627293750 -6.1900233438 -3.2552520640
-1.7352784375 -5.1897506250 -2.4336808000
-0.5960203125 -4.7369875000 -3.2725559360
-0.5400665625 -5.2427884375 -2.3685970000
0.5744531250 -4.8960606250 -3.2607307600
0.5844909375 -5.4599223125 -2.4597272720
1.7114000000 -5.0284737500 -3.2508742880
1.6407590625 -5.6151912813 -2.4843619760
-1.7465659375 -3.5000387500 -3.2222762720
-1.6453009375 -4.0585684375 -2.4157681840
-0.5751250000 -3.5723728125 -3.2529725120
-0.5533562500 -4.1600887500 -2.4710732240
0.5795056250 -3.7564396875 -3.2508095280
0.4872840625 -4.3242546875 -2.4643899920
1.6392271875 -3.9839500000 -3.2154117120
1.6192859375 -4.5116540625 -2.3601393440
-1.7065221875 -2.9259618750 -2.4307277440
-0.0006450000 -2.5255646875 -4.1000203600
-0.6211753125 -3.0391056250 -2.4299765280
0.5011246875 -2.6806871875 -3.2056070480
0.5369759375 -3.2285878125 -2.3741534080
2.2180206250 -5.1474762500 -4.1158218000
2.2101865625 -4.5114525000 -4.8003868080
-1.6407859375 -2.3793378125 -3.2463540400
-0.5375268750 -2.4566706250 -3.2228591120
1.7017115625 -3.3898378125 -2.4637682960
1.7117628125 -6.1765079063 -6.4377119452
2.2306787500 -3.4662703125 -4.9135872880
2.2083053125 -2.9494371875 -3.9946299360
2.2148359375 -2.4121118750 -4.8263814720
1.6700259375 -4.0183365625 -6.4425072937
1.6662231250 -2.8593656250 -6.4058302086
6.6869165625 -5.8499457500 -4.8337641120
2.2465484375 -3.9834125000 -3.9930627440
6.6678890625 -5.2922518750 -4.0587034800
6.6789346875 -4.1634212500 -4.0862005760
6.6930440625 -3.0606056250 -4.0367757440
2.2581450000 -6.2291855938 -3.9988393360
3.4151809375 -6.3941765938 -4.1261963520
4.4797803125 -6.5465739688 -4.1561931840
6.0736290625 -6.5413306563 -6.3927063356
5.5507893750 -6.6397365594 -4.0496111760
2.3003118750 -5.7317951875 -4.9407346800
2.7798693750 -4.0852418750 -6.4150203002
3.2271903125 -5.8304022500 -5.0072691040
3.8905459375 -4.7794768750 -5.6739525808
3.3503450000 -5.3282240625 -4.0365167040
3.7985259375 -5.9898207188 -5.6792654912
4.4401531250 -5.9658952500 -4.9729074480
4.3978518750 -5.4826101875 -4.0751136640
5.0448003125 -6.0752120000 -5.6735989912
5.5961678125 -6.0462904688 -4.8264721360
5.5233096875 -5.4685747188 -4.1195519760
6.1286421875 -5.9975244375 -5.7112426840
2.7232706250 -4.7173687500 -5.7142915848
3.2932490625 -4.7871496875 -4.9042488960
3.3494715625 -4.2726681250 -4.0187595120
3.9287756250 -3.6963606250 -5.6453998968
4.4241893750 -4.9008040625 -4.8769460800
4.4758700000 -4.3640700000 -4.0696349680
5.0350984375 -4.9401490625 -5.6558314376
5.5757831250 -4.8701262500 -4.8684884240
6.1338425000 -4.2974871875 -6.4347411450
5.6113521875 -4.3141765625 -4.0638195200
6.1533537500 -4.9067971875 -5.6611870896
2.7629784375 -2.9543687500 -6.4501636094
2.8250328125 -3.5209609375 -5.6604423496
3.3534221875 -3.7136950000 -4.8322357760
3.3305784375 -3.1137912500 -4.1016393600
4.4807209375 -3.7547868750 -4.8029513040
5.0865371875 -3.2454115625 -6.4690510836
4.4796325000 -3.1647059375 -4.0663581120
4.9874625000 -3.8298756250 -5.6815424528
5.5863046875 -3.7466975000 -4.8915170800
6.2116321875 -3.1304537500 -6.4565350868
5.5940446875 -3.2164940625 -4.0252355120
6.1310206250 -3.7424512500 -5.6605084048
2.8771837500 -6.3524450938 -3.2863109600
3.9430059375 -6.5475240000 -3.2378963840
4.9865084375 -6.5601243438 -3.2528170880
6.1413003125 -6.4481402500 -3.3185743920
2.7649268750 -5.2353037500 -3.2452919760
2.7450393750 -5.8025839375 -2.4265960560
3.8922793750 -5.3730246875 -3.1995843680
3.9044134375 -5.9713589375 -2.4628746080
4.9889675000 -5.4593404688 -3.2770373280
5.0652925000 -6.0062373125 -2.4322301760
6.0766256250 -5.3837478125 -3.2760918320
6.1624375000 -5.9426873438 -2.4240704160
2.7940862500 -4.1021059375 -3.1995066560
2.8155459375 -4.6885318750 -2.4352609440
3.9422937500 -4.2109631250 -3.2503173520
3.9224868750 -4.7956421875 -2.4629393680
5.0422203125 -4.3648493750 -3.2635802000
5.0166353125 -4.9204900000 -2.4180736400
6.1456003125 -4.3023784375 -3.2032238800
6.1626793750 -4.8591343750 -2.4005754880
2.8199534375 -2.9245106250 -3.2425979600
2.7791303125 -3.5058168750 -2.4667990640
3.8880331250 -3.1751871875 -3.2750945280
3.8896321875 -3.7028375000 -2.3632089680
5.0118784375 -3.2655275000 -3.2302935600
5.0143375000 -3.8304131250 -2.4151464880
6.1498465625 -3.1210206250 -3.2294775840
6.1194912500 -3.7022865625 -2.4701665840
2.7923393750 -2.3912568750 -5.6442199696
3.3607053125 -2.5377121875 -4.8467679200
3.9182540625 -2.6373915625 -5.6869110568
4.4862706250 -2.6194256250 -4.8894188560
5.0467084375 -2.6752181250 -5.6946965040
5.5946896875 -2.6569296875 -4.8572201840
6.1417706250 -2.5668581250 -5.6501416240
2.7818178125 -2.3990775000 -2.3787643200
3.9273243750 -2.6411809375 -2.4212598320
5.0108840625 -2.7006553125 -2.4402863200
6.1699625000 -2.5674090625 -2.4272825120
3.8790837500 -5.3737100000 -6.4187792297
2.7890740625 -6.2454879688 -6.3522168294
4.9187834375 -5.4940038438 -6.4551814733
2.7874212500 -5.3067643750 -6.3674667732
-6.1698590313 -1.8765737500 -6.4230574048
-5.0698612500 -1.7014025000 -6.4280234606
-5.6258431875 -1.7445234375 -3.9966504480
-4.5014146875 -2.1289031250 -4.8202163200
-4.4863781250 -1.5472475000 -4.0718368080
-3.9356825000 -2.0495950000 -5.6275753544
-3.3451984375 -2.0139587500 -4.8497080240
-3.3709581250 -1.4343053125 -4.0871201680
-2.8002943750 -1.8528028125 -5.6837520640
-6.6899443000 -0.8417250000 -4.0892572480
-6.2136625938 -1.2831737500 -5.6414741456
-5.5963371250 -1.2242637500 -4.9020082000
-5.0623900000 -0.5049409375 -6.4286595334
-5.6359092188 -0.6756643750 -4.0818487040
-5.0405271875 -1.1252025000 -5.7138421504
-4.5138309375 -0.9827112500 -4.8658721200
-3.9586875000 -0.4154337500 -6.4313824323
-4.5247690625 -0.4539053125 -3.9837761600
-3.9113606250 -1.0007712500 -5.6575009504
-3.3857393750 -0.8390509375 -4.8147764800
-3.3489340625 -0.2530146875 -4.0608276080
-2.8222646875 -0.7610731250 -5.6214723720
-6.6976348500 0.2899409375 -3.9884518320
-6.1841404063 -0.1916725000 -5.6516699600
-5.6234432500 -0.0923693750 -4.8556529920
-5.5385182500 0.4781062500 -4.0732356240
-5.0627125000 0.0468968750 -5.6266557624
-4.4389840625 0.0601731250 -4.8862067600
-4.4919681250 0.6275715625 -4.0858379200
-3.8995490625 0.1760312500 -5.7003539376
-3.3576953125 0.3146390625 -4.8453950080
-2.8131406250 0.8794171875 -6.4272108522
-3.4015821875 0.8553237500 -3.9934254000
-2.7899340625 0.2836925000 -5.6656607104
-6.1523325000 1.5616659375 -6.4607722041
-6.1634815938 0.9645840625 -5.7180360080
-5.6458045938 1.0689531250 -4.8352794960
-5.5744098125 1.6042762500 -3.9771835920
-5.0679800000 1.1045356250 -5.6479009280
-4.5054996875 1.2067681250 -4.8599919120
-4.4021921875 1.7695306250 -4.0691686960
-3.9236021875 1.3286328125 -5.6113477936
-3.3075062500 1.3672253125 -4.8807798720
-2.7629784375 1.4751553125 -5.7107582792
-6.2017126250 -1.8524400000 -3.2393729120
-5.0215668750 -1.7092365625 -3.2591506160
-3.9091031250 -1.5214878125 -3.2361608160
-3.8929109375 -2.0563406250 -2.3888539280
-2.8312543750 -1.2886428125 -3.2256437920
-2.7862521875 -1.8821234375 -2.4733527760
-6.1718854063 -0.7025528125 -3.1881348000
-6.1188489375 -1.3021340625 -2.4363618640
-5.1090046875 -0.5452534375 -3.2255790320
-5.0127518750 -1.1485703125 -2.4754898560
-3.9074368750 -0.4204996875 -3.2764285840
-3.9634309375 -0.9550300000 -2.4199646320
-2.7902296875 -0.2311518750 -3.2318607520
-2.7995956250 -0.7624975000 -2.3684804320
-6.1013250938 0.4060140625 -3.2634506800
-6.2156930000 -0.1361756250 -2.4002257840
-5.0241065625 0.5853509375 -3.1753382240
-5.0034262500 -0.0056303125 -2.4114292640
-3.9669515625 0.7248321875 -3.2099071120
-3.8840556250 0.1253987500 -2.4572534400
-6.1949320625 1.5318481250 -3.2820886080
-6.1688565938 0.9651215625 -2.4632890720
-4.9671584375 1.6864196875 -3.2712866400
-5.0924362500 1.1632575000 -2.4013267040
-2.8200475000 2.0441796875 -3.2073685200
-3.8765709375 1.2771806250 -2.4040466240
-2.7931725000 0.8709112500 -3.2692531760
-2.7515834375 1.4487237500 -2.4659701360
-2.2479325000 2.0791306250 -3.9939046240
-6.1367651563 2.1061803125 -5.6347637144
-5.5468454688 2.1343587500 -4.8385045440
-3.3512453125 1.9348118750 -4.0684045280
-6.0848386250 2.0577918750 -2.4247309680
-3.8852246875 1.8606100000 -3.1748978560
-2.8192815625 0.3542125000 -2.4137606240
-2.2479593750 -1.8570087500 -4.8671802720
-2.2609668750 -1.2942865625 -4.0226839680
-2.2539121875 0.4502906250 -4.8279357120
-6.6771911719 0.8280590625 -4.8321710160
-6.6869622500 2.0057350000 -4.8397090800
-6.1540027813 0.3669378125 -6.4568182175
-3.9250534375 0.7800737500 -6.4344634541
-5.0102121875 1.6812731250 -6.4417643670
-2.8080746875 2.0745887500 -6.4473479742
1.6732106250 -2.2103478125 -2.4601287840
-2.2322106250 -0.7526746875 -4.8357198640
-2.2177115625 0.9811659375 -3.9996423600
-2.2378812500 1.5342803125 -4.8470140080
1.7189384375 -1.6417668750 -3.2527005200
-1.6225915625 0.9850225000 -3.2299697600
-1.6759921875 -1.2399184375 -6.4663635825
-1.6611168750 -1.8074512500 -5.6757865840
-1.1054762500 -1.2565003125 -4.0647520640
-0.5869096875 -1.9343953125 -5.6287229016
-0.5911559375 -1.3951753125 -3.2114095440
-1.1572912500 -1.8411525000 -4.8041946960
0.0069203125 -1.9396225000 -4.8596292560
-0.0115025000 -1.4131143750 -4.0081647760
0.5410475000 -2.1360384375 -5.6750107592
1.1361540625 -2.1706400000 -4.9159445520
1.1034337500 -1.6603509375 -4.0026731280
1.7195834375 -2.2378812500 -5.7122607112
-2.2357984375 -0.1522468750 -4.0987122080
-1.6986881250 -0.6923537500 -5.6493580280
-1.0997787500 -0.6987768750 -4.8629449680
-0.5774228125 -0.2179831250 -6.4047566174
-0.5567693750 -0.1978671875 -3.2339589760
-0.5614321875 -0.8256403125 -5.6731081104
0.0174956250 -0.8676459375 -4.8819455520
0.5849075000 -0.9383809375 -5.7008383424
-0.0016796875 -0.3520356250 -3.9995516960
0.5516228125 -1.5418456250 -6.4182763035
1.0971853125 -1.1032321875 -4.8211488640
1.1363018750 -0.5068625000 -4.0913943280
1.6505818750 -1.1296906250 -5.6558689984
-1.6938103125 0.4252968750 -5.6317549648
-1.1518893750 -0.1608468750 -3.9873509120
-1.1112140625 0.3674753125 -4.8631133440
-0.5504000000 0.3752287500 -5.6839554104
-0.0212446875 0.2104715625 -4.8141547840
0.6130321875 0.7243350000 -6.4581956627
0.0253162500 0.8074056250 -4.0808384480
0.5279190625 0.1567618750 -5.6442510544
1.1064571875 0.0910793750 -4.8345800880
1.6436212500 -0.0557253125 -5.6352779088
1.1190884375 0.6585853125 -4.0507120960
-1.6534843750 2.1055890625 -6.4709290977
-1.6552581250 1.5301415625 -5.6847545488
-1.0840165625 0.9300765625 -4.0604001920
-0.5158925000 2.0071862500 -6.4664617975
-1.1542409375 1.5257878125 -4.8033657680
-0.5890596875 1.4460631250 -5.6271401672
0.0045821875 1.3886715625 -4.8634241920
0.5298137500 1.8341246875 -6.4180241281
0.0195650000 1.9383190625 -4.0540796160
0.5725584375 1.2564868750 -5.6184377184
1.1878615625 1.1961928125 -4.9011663200
1.7646662500 1.1243559375 -5.6577094776
1.6649734375 0.5232562500 -6.4018623634
-1.6763012500 -1.2723834375 -3.2521953920
-0.5467181250 -0.7845484375 -2.4747904480
0.5608946875 -1.5032531250 -3.2114354480
0.5940181250 -2.0925009375 -2.4612038000
1.6591818750 -1.1178790625 -2.3635068640
-1.6459459375 -0.7235690625 -2.4176203200
-0.5656784375 0.3482731250 -2.4299635760
-0.5183784375 0.9251181250 -3.2303065120
0.6161900000 -0.3595875000 -3.2537496320
1.6791634375 -0.5911425000 -3.2360701520
-1.7158478125 1.5581318750 -2.4245625920
-1.7321475000 -0.1578906250 -3.2042859440
-0.5401337500 1.9807278125 -3.2100754880
-1.6765162500 0.4268556250 -2.4376052560
-0.5723971875 1.4487371875 -2.3557356640
0.5525768750 0.6989112500 -3.2253718000
1.6706037500 0.5448771875 -3.2209940240
1.6941865625 -0.0254103125 -2.4255339920
-1.6399662500 2.0928771875 -3.2736568560
0.5579921875 1.8419990625 -3.1982503120
1.0908965625 1.7296078125 -4.0355712080
1.6854253125 1.1073171875 -2.4296656800
2.2356775000 -1.8146000000 -4.1035562560
2.2154406250 0.4443646875 -4.0207023120
1.6749440625 1.6781153125 -3.2477269520
1.7069387500 2.2242825000 -5.6971599744
-1.7302796875 -1.8214396875 -2.4238631840
-0.5656381250 -1.9194393750 -2.3586628160
0.5255675000 -0.9226725000 -2.4534585040
0.5493653125 0.1605243750 -2.3705268480
0.5929834375 1.2622112500 -2.4262074960
-1.0625703125 2.1074568750 -4.0622264240
2.2170128125 -1.2070906250 -4.8235838400
2.2381768750 1.6014006250 -4.0541573280
1.7166003125 2.2060881250 -2.3785570880
-1.6682790625 -0.1347512500 -6.4600382142
-0.5407921875 -1.3756237500 -6.4732924621
6.6868628125 -1.9560028125 -4.0659695520
2.2987396875 0.9996021875 -4.8097252000
2.2484565625 2.1726556250 -4.8212654320
6.6586171875 -1.4031706250 -4.8923201040
6.6675262500 -0.2431784375 -4.8499282080
6.6815281250 1.4255709375 -4.0703343760
2.2530656250 -0.0861612500 -4.9053627680
3.3549540625 -1.9466503125 -4.0904747360
4.4628759375 -2.0976609375 -3.9996553120
5.6060040625 -2.0790903125 -4.0831827600
2.7858625000 -0.7602131250 -6.3962193066
2.7881200000 -0.7729787500 -3.2224057920
2.7364931250 -1.3609231250 -5.6608101864
3.3453731250 -1.3840893750 -4.9069817680
3.3362625000 -0.8591803125 -4.0406613440
3.9116696875 -1.5072440625 -5.6678897496
4.4668534375 -1.5533212500 -4.8560156480
4.4445740625 -0.9949662500 -4.0447153200
4.9902306250 -1.5359331250 -5.7284533016
5.5211462500 -1.4968031250 -4.8406157200
6.1597096875 -0.9432856250 -6.4594814078
5.6032896875 -0.9432990625 -3.9987616240
6.0678778125 -1.5114096875 -5.6672214264
2.2409315625 -0.6288750000 -4.0556209040
2.8339418750 -0.1790546875 -5.6520093024
3.3761584375 -0.2967940625 -4.8410172320
3.3587703125 0.2749446875 -4.0553359600
3.9503293750 -0.3848365625 -5.6407799184
4.5120706250 -0.4313571875 -4.8270549760
4.4781140625 0.1550150000 -4.0597266880
5.0447600000 -0.4085403125 -5.6625625920
5.6248031250 -0.4178256250 -4.8646675840
5.5616334375 0.1480678125 -4.0327735760
6.1567131250 -0.3404256250 -5.7270700280
2.8304346875 0.9345512500 -5.6838828792
3.3751909375 0.8704140625 -4.8112017280
3.9576259375 1.2775971875 -6.4191854044
3.3843284375 1.4300053125 -3.9971555760
3.8923734375 0.6885778125 -5.6823053256
4.4590865625 0.7287425000 -4.8646157760
5.0533331250 1.2546593750 -6.4454183852
4.5183862500 1.2553312500 -4.0028026480
5.0381084375 0.6919640625 -5.6234151720
5.6275712500 0.6923000000 -4.8579973040
5.6132200000 1.2851087500 -4.1125449440
6.1814381250 0.8429343750 -5.6425245528
2.7864671875 -1.8698146875 -3.2625181360
3.8781565625 -2.0677221875 -3.2294128240
5.0640025000 -2.1254228125 -3.2383885600
6.1380350000 -1.9993387500 -3.2135207200
2.7746959375 -0.1936478125 -2.4404028880
2.8127509375 -1.3247762500 -2.4050568800
3.9021693750 -0.9027984375 -3.2244910640
3.9152306250 -1.5083056250 -2.4608929520
5.0140821875 -0.9987556250 -3.2555111040
5.0047968750 -1.5643803125 -2.4387450320
6.1941365625 -0.9088318750 -3.2553945360
6.1293543750 -1.4300993750 -2.3962495200
2.7787271875 1.4653056250 -3.2409271520
2.8183946875 0.3721650000 -3.2396708080
3.9173000000 0.1648243750 -3.2228202560
3.9163593750 -0.3807784375 -2.3707081760
5.0042728125 0.1350871875 -3.2036772000
5.0873971875 -0.4524540625 -2.4441201120
6.1364762500 0.2537403125 -3.2802753280
6.1406418750 -0.3225268750 -2.4747904480
3.9475343750 1.3008709375 -3.2288817920
3.9241128125 0.7449884375 -2.4343543040
5.1024875000 1.2533425000 -3.2227684480
5.0385250000 0.7025259375 -2.4106910000
6.1425231250 1.3566768750 -3.2053868640
6.2041206250 0.7721456250 -2.4132166400
2.7687296875 2.0294790625 -5.6742491816
3.3530593750 1.9535168750 -4.8872429200
3.9227556250 1.8835612500 -5.6718465856
4.4711534375 1.7962846875 -4.8735915120
5.0601459375 1.8249065625 -5.6789442816
5.5829990625 1.8820025000 -4.8496173600
6.1832656250 1.8818546875 -5.6212185128
3.9144109375 1.8843137500 -2.4594423280
5.0066915625 1.8160109375 -2.3962495200
6.1642650000 1.9090387500 -2.3743088320
2.8049571875 0.9158865625 -2.4017670720
2.8344928125 2.0338865625 -2.4704515280
3.8623137500 -0.9114118750 -6.4687380467
6.1390831250 0.2737756250 -6.4390327902
-5.0275331250 2.2659118750 -5.7147721040
-6.2407566250 6.5541406250 -5.6179028008
-5.6323133438 6.6608209375 -4.8669730400
-6.2092645000 6.5692712500 -2.4264017760
-5.0213653125 6.7078790625 -2.3970654960
-3.8579465625 2.9880028125 -3.2799644800
-5.6470636875 2.7128565625 -4.0611384560
-4.5071121875 2.3524628125 -4.8366265040
-3.8949131250 2.9577012500 -6.4462249062
-4.4720537500 2.8768209375 -3.9692569680
-3.9255371875 2.4030818750 -5.6446953080
-3.3618609375 2.5058921875 -4.8520134800
-2.7893159375 2.6086353125 -5.6192575800
-6.1393290313 3.7110075000 -6.4399883887
-6.6746281031 3.7105237500 -4.0052635280
-6.1298300625 3.1693687500 -5.6110732112
-5.5519127500 3.2813165625 -4.8490604240
-5.5846061875 3.8678768750 -4.0990489600
-4.9956728125 3.4137296875 -5.6394769472
-4.4131437500 3.4114587500 -4.8304354480
-4.5187759375 3.9996181250 -4.0735853280
-3.9046284375 3.5605075000 -5.7200047120
-3.3855378125 3.6552821875 -4.8255136880
-2.7597534375 4.2448256250 -6.4176132906
-3.3493103125 4.1943543750 -3.9888015360
-2.8089884375 3.6514659375 -5.6441785232
-6.7096142334 4.2544603125 -4.8782930880
-6.1120845000 4.9265368750 -6.4296897354
-6.1457561875 4.3166625000 -5.7075798584
-5.6229527813 4.4485246875 -4.8612741600
-5.5498460625 4.9823428125 -3.9922597200
-5.0154259375 4.4524618750 -5.6206758240
-4.4576218750 4.5826040625 -4.8392687120
-3.9017931250 5.7363746875 -5.6213130624
-4.4390109375 5.1615184375 -4.0909410080
-3.8951953125 4.6754437500 -5.6316409872
-3.2990406250 4.7204593750 -4.8539433280
-2.8067175000 5.4397553125 -6.4495470942
-3.3846778125 5.3023434375 -4.0696608720
-2.7780150000 4.8476453125 -5.7143097176
-6.6915343594 5.3412718750 -4.8174057360
-6.1534558750 5.4792481250 -5.6668652464
-5.5954865313 5.5173434375 -4.8525186080
-5.6540700000 6.0948200000 -4.0836360800
-5.0514921875 5.5877962500 -5.6908134944
-4.5172843750 5.7513171875 -4.8746535760
-4.4898718750 6.2601012500 -4.0035150080
-3.9452500000 6.2865462500 -6.4415041613
-3.3278909375 5.8690834375 -4.8566114400
-3.3843015625 6.4338212500 -4.0710078800
-2.7685953125 5.9982312500 -5.6538705048
-6.1866935313 2.6373915625 -3.1987165840
-5.0870612500 2.8337403125 -3.2719342400
-5.0318734375 2.2582256250 -2.4745055040
-3.9666425000 2.4527871875 -2.4286165680
-3.2827006250 3.0656178125 -4.0601282000
-2.7571196875 3.1470759375 -3.1986647760
-6.0939371563 3.7408253125 -3.2163183520
-6.1676767813 3.1958406250 -2.3791917360
-5.0464531250 3.9387328125 -3.1934062640
-4.9606009375 3.3565800000 -2.4109500400
-3.9580962500 4.1039603125 -3.2645386480
-3.8961762500 3.5457262500 -2.4567224080
-2.7612046875 4.2555487500 -3.2562623200
-2.8274515625 3.7315803125 -2.4099915920
-6.1433387813 4.8941928125 -3.2700432480
-6.1789118750 4.3274393750 -2.4533419360
-4.9627106250 5.0376381250 -3.2352153200
-5.0594203125 4.5032153125 -2.3908226320
-3.9069665625 5.2051500000 -3.1952065920
-3.8546946875 4.6351715625 -2.3973374880
-2.8344928125 5.4282259375 -3.2297495760
-2.7721159375 4.8359681250 -2.4705033360
-6.1714030000 5.9948315625 -3.2043895600
-6.1046387813 5.4212921875 -2.4157163760
-5.0826537500 6.1811425000 -3.2818554720
-5.0511965625 5.6251928125 -2.4631984080
-3.8994281250 6.3288609375 -3.2250998080
-3.9612406250 5.7791865625 -2.4152242000
-2.8089078125 6.5031050000 -3.2285061840
-2.7542978125 5.9559031250 -2.3813417680
-2.2620284375 5.4071693750 -4.0040201360
-2.7874615625 2.5958562500 -2.3885948880
-2.2494106250 3.7893750000 -4.8677760640
-2.2420065625 4.8905378125 -4.8701980880
-2.2698625000 6.5763528125 -4.0867575120
-6.7094218756 2.5970790625 -4.0984661200
-6.7114936559 5.9625143750 -4.0869258880
-5.0392506250 2.8642837500 -6.4551016890
-5.0616106250 6.1736040625 -6.4205234755
-4.9900021875 4.9993681250 -6.4527041442
1.6901284375 6.6938368750 -5.6536878816
1.7427362500 6.6916062500 -2.4541061040
1.1734565625 2.3078234375 -4.8078212560
-2.1827875000 2.6024137500 -4.8436335360
-1.6588862500 3.2656887500 -6.4358699118
-2.2090040625 3.2108637500 -4.1017429760
-1.6775912500 2.6613237500 -5.6834412160
-1.0899021875 2.6597112500 -4.8754695520
-1.1152856250 3.2124090625 -4.0078798320
-0.5243984375 2.5533400000 -5.6443663272
0.0621484375 2.4945778125 -4.8876703360
-0.0072831250 3.0181431250 -4.0308696320
0.6497165625 2.4116415625 -5.6626338280
1.1150437500 3.4794928125 -4.8417814000
-1.6883009375 4.3511162500 -6.4645981860
-2.1862678125 4.3201025000 -4.0206893600
-1.6532693750 3.8046668750 -5.6166283240
-1.0647337500 3.7264740625 -4.8776454880
-1.1179328125 4.2909162500 -4.0673165600
-0.5850687500 3.1351165625 -6.4163355758
-0.4926725000 3.7311906250 -5.6801190280
0.0315781250 4.1929837500 -4.0598821120
0.0320484375 3.5973934375 -4.7975373680
0.5502118750 3.4915596875 -5.6954386536
1.7307903125 3.9356690625 -6.4039073547
1.1926856250 4.0123165625 -4.0011577440
1.6360425000 3.3313846875 -5.6863165600
-1.6419281250 4.9187968750 -5.6453351368
-1.1211175000 4.8900809375 -4.7860489440
-1.0894587500 5.4778371875 -4.0554007200
-0.5783903125 4.7891250000 -5.6620704160
-0.0082237500 4.7640237500 -4.8446567440
0.5818034375 5.2276443750 -6.3967660105
0.0473403125 5.3073556250 -4.0168944240
0.5230546875 4.6154184375 -5.6905117128
1.0970240625 4.5344171875 -4.9245576320
1.1438134375 5.0473534375 -4.0266731840
1.7151759375 4.5347262500 -5.6500988824
-2.2028228125 5.9794993750 -4.8037802320
-1.7026790625 6.0084706250 -5.6813442872
-1.1297175000 6.0515646875 -4.8366653600
-0.5564468750 6.4753028125 -6.3970326922
-1.0926300000 6.5991025000 -3.9982694480
-0.5978209375 5.8795243750 -5.6606029544
-0.0031981250 5.8426115625 -4.9193638800
0.0074712500 6.3533575000 -4.0365167040
0.6039618750 5.8238931250 -5.6680490592
1.1239796875 5.6034375000 -4.8437889600
1.1023990625 6.2042415625 -4.1100063520
1.7126228125 5.6472571875 -5.6563106616
-1.7051650000 3.1984878125 -3.2145180240
-1.6442259375 2.6233090625 -2.4135663440
-0.5536653125 3.1493468750 -3.2152951440
-0.5492443750 2.5725153125 -2.4470472640
1.1475490625 2.8975146875 -4.0596230720
0.5690781250 2.4106740625 -2.4071421520
1.6815687500 2.7410753125 -3.2405385920
-1.6301971875 4.3525943750 -3.1880182320
-1.6500578125 3.7657115625 -2.4365561440
-0.5452131250 4.2619584375 -3.2539568640
-0.5213212500 3.7041006250 -2.4113256480
0.5662293750 4.0231337500 -3.2536460160
0.6041231250 3.4904578125 -2.3977001440
1.7380734375 3.9348359375 -3.1986647760
1.7009993750 3.3288046875 -2.4839086560
-1.6624606250 5.4649103125 -3.2679450240
-1.6937162500 4.9357953125 -2.4188378080
-0.5462343750 5.3144775000 -3.2413675200
-0.5295584375 4.7908046875 -2.3738814160
0.6012475000 5.2158059375 -3.1984575440
0.5727331250 4.6026259375 -2.4891801200
1.7284253125 5.1014931250 -3.2326378720
1.6543981250 4.5233312500 -2.4508940080
-1.7133484375 6.5556187500 -3.2761047840
-1.6530946875 6.0242328125 -2.4235393840
-0.5341540625 6.4952440625 -3.2022265760
-0.5837115625 5.9000300000 -2.4795826880
0.5821796875 6.3789425000 -3.2204629920
0.5313456250 5.7915759375 -2.4456225440
1.6258434375 6.1272850000 -3.2570135360
1.7165062500 5.6205703125 -2.3409574320
2.2183834375 3.2596553125 -4.9108414640
0.5786456250 2.9498537500 -3.2568451600
2.2328287500 6.1482071875 -4.0435625920
-1.6425059375 6.5785565625 -6.4727801328
2.2905428125 6.6598131250 -4.8860642880
6.7029878125 3.1920109375 -4.8726719200
6.7155250000 4.7956421875 -4.0224767360
6.5741759375 6.4829890625 -5.0035777840
2.8720103125 6.5951518750 -5.7080823960
3.3819768750 6.4088678125 -4.8217187520
3.9811146875 6.3916946875 -5.6783070432
4.5128903125 6.2892606250 -4.8847302320
5.1144737500 6.3268587500 -5.6997192896
5.6661100000 6.2855653125 -4.9694751680
6.1613087500 6.0090350000 -6.2578844344
2.7780687500 6.5358118750 -2.4904753200
3.8851843750 6.3449321875 -2.3788679360
5.0688803125 6.3101425000 -2.4531476560
6.1308056250 6.4165137500 -2.5032718960
2.2871565625 2.7352434375 -4.0046418320
2.8599031250 2.6200437500 -6.4203074362