ITEM: TIMESTEP
53000
# source: voids-relax.53000.cfg
ITEM: NUMBER OF ATOMS
2298
ITEM: BOX BOUNDS pp pp pp
-6.7187500000 6.7187500000
-6.7187500000 6.7187500000
-6.4760000000 6.4760000000
ITEM: ATOMS x y z
-5.0073768750 -6.3733350313 -6.4613440349
-5.6065966563 -6.4135050938 -4.0169721360
-4.4937956250 -6.2293414688 -4.0559835600
-3.3883462500 -6.0604052188 -4.0903063600
-2.8188246875 -6.5034946875 -5.6755469720
-6.2145346875 -5.3574237500 -6.4539562141
-6.1546518125 -5.9375824375 -5.6854941080
-5.5986725625 -5.8761717188 -4.8600955280
-5.6599435313 -5.3190462500 -4.0368146000
-5.0537362500 -5.7815072188 -5.7183235424
-4.5228071875 -5.6635447813 -4.8556400400
-3.8829134375 -5.0944384375 -6.4730956435
-4.5102431250 -5.1241487500 -4.0126202640
-3.9437046875 -5.6293167813 -5.6426229880
-3.3877012500 -5.4759438438 -4.8485812000
-3.3625731250 -4.9141743750 -4.0393013840
-2.7961018750 -5.4417131563 -5.6189881784
-6.7001666094 -4.3339565625 -4.0740127440
-6.1554231250 -4.8030193750 -5.6325165424
-5.5693667188 -4.7755934375 -4.8809741520
-5.5807885938 -4.2106271875 -4.0737537040
-5.0184896875 -4.6430190625 -5.6966613224
-4.4654290625 -4.5727543750 -4.8510938880
-4.4955290625 -4.0075462500 -4.0407390560
-3.9401706250 -4.5001112500 -5.7320371200
-3.4012462500 -4.3655884375 -4.8661052560
-2.7429028125 -3.7956503125 -6.4685403863
-3.3677062500 -3.8185612500 -4.0317762720
-2.8289028125 -4.3483078125 -5.6641492120
-6.7128965444 -3.7413762500 -4.8362897520
-6.1655899375 -3.7256543750 -5.6929181944
-5.6204950625 -3.6324250000 -4.8409006640
-5.5571238125 -3.0626346875 -4.0488211040
-5.0578884375 -3.5368440625 -5.6425478664
-4.4714221875 -3.4759184375 -4.9013476480
-4.4175781250 -2.9228443750 -4.0708006480
-3.8991728125 -3.3441100000 -5.6878539624
-3.3403206250 -3.2789650000 -4.8766481840
-3.3441100000 -2.7156246875 -4.0504271520
-2.7917212500 -3.2012559375 -5.7262190816
-6.1822161563 -6.5071738750 -3.2410307680
-5.0404465625 -6.3638723438 -3.2256696960
-3.9233468750 -6.1968899063 -3.2507706720
-2.8222243750 -5.9469980938 -3.2779439680
-2.8312678125 -6.5003140313 -2.3934518880
-6.1992790938 -5.3625568750 -3.1923960080
-6.1736846875 -5.9423406563 -2.4431616640
-5.0842796875 -5.2261528125 -3.2354096000
-5.0330425000 -5.7939355625 -2.4466457520
-3.9290443750 -5.0674693750 -3.2472995360
-3.9160637500 -5.6418512813 -2.4459592960
-2.7864940625 -4.8668878125 -3.2454474000
-2.8330146875 -5.4368810313 -2.3980887040
-6.1449889063 -4.2495287500 -3.2558996640
-6.2040816563 -4.7795575000 -2.4192004640
-5.0506590625 -4.0885743750 -3.2052443920
-5.0303415625 -4.6668706250 -2.4306370800
-3.9484346875 -3.9447662500 -3.2250220960
-3.8907340625 -4.5214768750 -2.4320618000
-2.8236756250 -3.7566681250 -3.2509390480
-2.8035731250 -4.3261493750 -2.4431357600
-6.1384999375 -3.1682668750 -3.2829563920
-6.1521914063 -3.6959306250 -2.4228399760
-4.9860515625 -2.9507406250 -3.2601220160
-5.0371275000 -3.5063946875 -2.4368410880
-3.8961359375 -2.7883215625 -3.1934451200
-3.8594381250 -3.3789534375 -2.4365431920
-2.8127778125 -2.6401731250 -3.2278067760
-2.6678946875 -3.1940131250 -2.4168691040
-2.2524206250 -6.5119885313 -4.8486718640
-2.2407837500 -5.3681871875 -4.8095050160
-2.2739475000 -4.2050103125 -4.8752493680
-6.1104276563 -2.6126396875 -5.7013641936
-5.5746288438 -2.4985956250 -4.8444624640
-5.0246978125 -2.4374550000 -5.6943714088
-4.4829650000 -2.3468996875 -4.8398774560
-6.0992315313 -2.6136071875 -2.4561654720
-5.0093118750 -2.4071534375 -2.4241481280
-2.2406762500 -4.7696943750 -4.0807866400
-2.2552559375 -3.0941590625 -4.8675040720
-6.7181029656 -6.0233015938 -4.8920092560
-6.6772451906 -2.6398909375 -4.8927734240
-3.9085253125 -6.7100495278 -5.6199362648
-3.3473753125 -6.6575482344 -4.8120306560
-6.1658452500 -6.5100065000 -6.4570175488
-3.9162115625 -3.9045746875 -6.4755579599
-2.7995015625 -2.6071975000 -6.4673005302
-2.2326675000 -3.6701171875 -4.0503235360
-1.6975593750 -5.7992339688 -6.4728075133
-2.2366718750 -5.9402108125 -4.0471373440
-1.7213168750 -6.3803883750 -5.6990600328
-1.1526284375 -6.2857843438 -4.8925532400
-1.1133775000 -5.7515644375 -3.9919747760
-0.5747353125 -6.3383451250 -5.6800439064
-0.0294818750 -6.3014067813 -4.8755602160
-0.0247787500 -5.7533892500 -4.0503364880
0.5589596875 -6.3531720625 -5.6600680368
1.0986903125 -6.5019587813 -4.8593702160
1.0984350000 -5.9146809063 -4.0978962320
1.6757503125 -6.5107522813 -5.6698714056
-1.7117225000 -5.2433259375 -5.6733710360
-1.1273256250 -5.2252390625 -4.8650172880
-0.5652081250 -4.5799165625 -6.4616489250
-1.1295159375 -4.6695850000 -4.0399101280
-0.5867350000 -5.1438615625 -5.6981715256
-0.0205862500 -5.2034300000 -4.9114243040
0.0047434375 -4.6711975000 -4.0416197920
0.5836309375 -5.2398725000 -5.6701537592
1.1015525000 -5.3219218750 -4.8126653040
1.1238318750 -4.7160518750 -4.0845168160
1.6478137500 -5.4529200313 -5.6580565912
-1.6582950000 -4.1758509375 -5.6089257696
-1.0958818750 -4.0912215625 -4.8259022480
-1.1544156250 -3.5134762500 -4.0834677040
-0.5606259375 -3.9941221875 -5.6877296232
-0.0156681250 -4.1091471875 -4.8397349840
0.0129000000 -3.5182465625 -4.0638324720
0.5283759375 -4.1250706250 -5.6682290920
1.1191825000 -4.1641065625 -4.8961538960
1.6483512500 -3.7922909375 -6.4621072962
1.1020093750 -3.6402321875 -4.0281885680
1.6950331250 -4.3372756250 -5.6374266456
-1.6312318750 -2.5119256250 -6.4467172118
-2.2326271875 -2.5555840625 -4.0477590400
-1.6704559375 -3.0771606250 -5.6520041216
-1.1156350000 -2.9245912500 -4.8395277520
-1.1197334375 -2.3721487500 -4.0381616080
-0.5367071875 -2.9357175000 -5.6277735200
0.5703143750 -3.0064525000 -5.6523110840
0.0296565625 -2.9650784375 -4.8267182240
1.1664556250 -3.0876418750 -4.8799120880
1.0857634375 -2.5643050000 -4.0047584000
1.6963231250 -2.6294365625 -3.2876838720
1.7115209375 -3.1958809375 -5.7124770096
-1.7152968750 -5.7420359063 -3.2125881760
-1.6945493750 -6.3139842813 -2.4834941920
-0.5570381250 -5.7099646250 -3.1874094880
-0.5653021875 -6.3240865938 -2.4711638880
0.5637434375 -5.8015949375 -3.2616762560
0.5402143750 -6.3580310625 -2.4392890160
1.6500578125 -6.0028255313 -3.2686185280
1.6391600000 -6.5449198125 -2.3992155280
-1.6871184375 -4.6120456250 -3.2389973040
-1.7228890625 -5.1141646875 -2.4363100560
-0.5681240625 -4.5249437500 -3.2484134080
-0.6018387500 -5.1053496875 -2.4789480400
0.5626684375 -4.7147081250 -3.2476103840
0.5120896875 -5.2666803125 -2.3971302560
1.6373593750 -4.9153300000 -3.2191548400
1.6647046875 -5.4713589688 -2.3986715440
-1.6697303125 -3.5088134375 -3.1824747760
-1.6950331250 -3.9311406250 -2.4144082240
-0.5419075000 -3.4635425000 -3.2959602000
-0.5817228125 -4.0054634375 -2.4064816000
0.5490428125 -3.5848831250 -3.1968126400
0.5197087500 -4.1759046875 -2.4222441840
1.6580531250 -3.7519784375 -3.1967996880
1.6957453125 -4.3306240625 -2.4509328640
-1.6771343750 -2.5459628125 -3.1718670880
-0.0200353125 -2.3443600000 -4.0997224640
-0.6623209375 -2.9470721875 -2.4103931040
0.5197221875 -2.4250387500 -3.2239470800
0.5585028125 -3.0081321875 -2.4434207040
2.2224146875 -6.6130444438 -4.8274694400
2.2001756250 -4.9280418750 -4.0480051280
2.1977568750 -3.8490375000 -4.0347681840
-0.5262393750 -2.3938503125 -3.2424813920
1.7072343750 -3.1611450000 -2.4412965760
2.2308803125 -6.0354060938 -4.0588330000
2.2354759375 -5.4846285000 -4.8779951920
2.2315118750 -3.2671265625 -4.8098417680
-0.5697500000 -5.7493405313 -6.4310771537
1.6761400000 -4.8810106250 -6.4756482017
6.7092228125 -5.4648471563 -4.0684304320
6.7059843750 -4.8915590625 -4.8647712000
6.6806412500 -6.5429740625 -4.0228005360
6.7029475000 -3.1745959375 -4.0388092080
3.9038893750 -6.3135838438 -6.4352760626
3.3340587500 -6.2001270000 -4.0150034320
4.4355575000 -6.4260234688 -4.0511654160
5.5572125000 -6.5708756875 -4.0724066960
2.7361303125 -5.0349237500 -6.4497494045
2.7930381250 -5.5995621250 -5.6753643488
3.3679212500 -5.6710912813 -4.9007000480
3.2980059375 -5.1369412500 -4.0314136160
3.9397271875 -5.7169480938 -5.7034805504
4.4554584375 -5.8478562188 -4.8304613520
4.4684928125 -5.2855868750 -4.0293024400
5.0162590625 -5.9100436250 -5.6595033296
5.5705828125 -5.9762219688 -4.8242314400
5.6125481250 -5.4085735938 -4.0663969680
6.1194912500 -6.0080460000 -5.6378760800
2.2872371875 -4.3855162500 -4.8892763840
2.8497981250 -4.4518571875 -5.6868916288
3.3759568750 -4.5694084375 -4.8147894320
3.3789803125 -3.9904000000 -4.0416716000
3.9070068750 -4.6037950000 -5.7026801168
4.4473153125 -4.7292340625 -4.8515083520
4.5238821875 -4.1671165625 -4.0362576640
5.0156812500 -4.8134737500 -5.6808585872
5.5629906250 -4.8329446875 -4.8609633120
5.6000378125 -4.2761618750 -4.0634050560
6.1339500000 -4.8923250000 -5.6512982376
2.8788634375 -2.7581543750 -6.4666419987
2.2876537500 -2.6959521875 -4.0221788400
2.7611509375 -3.3417853125 -5.7005482176
3.2984225000 -3.4266968750 -4.8450971120
3.9393375000 -2.9377868750 -6.4584528894
3.4187687500 -2.8565437500 -4.0600116320
3.8788150000 -3.4794121875 -5.6209646536
4.4710862500 -3.6322906250 -4.8980319360
4.4814600000 -3.0795928125 -4.0940753920
5.0635859375 -3.6607781250 -5.6435464656
5.6349484375 -3.7180084375 -4.8710658720
6.1403193750 -3.2043465625 -6.4630836310
5.5955228125 -3.1507040625 -4.0566570640
6.1922150000 -3.7941587500 -5.7002088752
2.7438568750 -6.1886406250 -3.2168364320
3.8853993750 -6.3078151250 -3.2062935040
5.0098090625 -6.4561342188 -3.2478176160
6.1112809375 -6.5426246875 -3.2428440480
2.7500784375 -5.0036950000 -3.2138186160
2.8083971875 -5.5950162188 -2.4697262160
3.8920643750 -5.1522868750 -3.2670901920
3.9278215625 -5.7149768125 -2.4636776320
5.0397881250 -5.3767011875 -3.2681652080
5.0328812500 -5.9100893125 -2.4065075040
6.1458287500 -5.4296583750 -3.2355520720
6.1278896875 -5.9936100938 -2.4188637120
2.7958868750 -3.8906668750 -3.2842127360
2.8236621875 -4.4312037500 -2.4357401680
3.9462846875 -4.0493503125 -3.2527911840
3.9112800000 -4.6084443750 -2.4405712640
5.0828150000 -4.2371662500 -3.2055422880
5.0038965625 -4.8154087500 -2.4470861200
6.1794762500 -4.3529034375 -3.2648754000
6.1123156250 -4.8851896875 -2.3885171760
2.8563825000 -2.8043121875 -3.2422094000
2.7932665625 -3.3523740625 -2.4248734400
3.9607300000 -2.9149431250 -3.2116167760
3.8984606250 -3.4902562500 -2.4433170880
5.0396940625 -3.1038071875 -3.2464188000
5.0277481250 -3.6634925000 -2.4224384640
6.1575731250 -3.2693034375 -3.2304230800
6.1748671875 -3.8118828125 -2.4006920560
3.9747050000 -2.3740031250 -5.6319660824
4.5184803125 -2.4663053125 -4.8119788480
5.0556443750 -2.5585000000 -5.6677550488
5.6204896875 -2.5916503125 -4.8619088080
6.1840584375 -2.6516621875 -5.6631130520
3.9363812500 -2.3549621875 -2.3959516240
5.0601056250 -2.5744368750 -2.3743476880
6.1857112500 -2.6906443750 -2.4740133280
3.3654621875 -2.3086296875 -4.8974879520
2.7995284375 -6.1764796875 -6.4634611170
5.0280303125 -4.2320868750 -6.4453972734
-6.1525824375 -2.0173584375 -6.4488511833
-6.6997074500 -2.0951078125 -4.0542738960
-5.5995419688 -1.9355912500 -4.0487692960
-4.4554718750 -1.7759671875 -4.0512042720
-3.9215865625 -2.2300337500 -5.6465901856
-3.3338034375 -2.1816453125 -4.8892893360
-3.3219112500 -1.6279934375 -4.0832863760
-2.7745346875 -2.0425671875 -5.6781710472
-6.7057718341 -1.5356240625 -4.8785391760
-6.6620680719 -0.9971028125 -4.0443267600
-6.1425862813 -1.4518412500 -5.6620147224
-5.5605933750 -1.3940196875 -4.8984982080
-5.5357971563 -0.8465625000 -4.0731838160
-4.9784862500 -1.3144293750 -5.6754278136
-4.4304512500 -1.2086493750 -4.8588909920
-3.9349434375 -0.5738887500 -6.4676303269
-4.4731018750 -0.6386978125 -4.0553230080
-3.8565356250 -1.1488928125 -5.6871558496
-3.3323387500 -1.0267996875 -4.8116939040
-3.3599528125 -0.4541740625 -4.0468783040
-2.7803934375 -0.9382600000 -5.6578286360
-6.6963781750 0.1704009375 -4.0465933600
-6.1765105938 -0.3268940625 -5.6753837768
-5.6219812500 -0.2805750000 -4.8475968480
-5.5528990625 0.2962028125 -4.0649463440
-5.0598234375 -0.1752115625 -5.6448261232
-4.4626071875 -0.1047721875 -4.9203482320
-3.8825506250 0.5506956250 -6.4581245562
-4.4346303125 0.4388015625 -4.0837008400
-3.8687906250 -0.0152515625 -5.6578752632
-3.2987450000 0.0919393750 -4.8859347680
-2.8184081250 0.7271971875 -6.4638486926
-3.3851750000 0.6309846875 -4.0465286000
-2.7210534375 0.1519378125 -5.6938520336
-6.1290721875 0.7607103125 -5.6571318184
-5.5827128438 0.8704678125 -4.8404732480
-5.6270122500 1.4341978125 -4.0327994800
-5.0401643750 0.9338390625 -5.7111351824
-4.5048815625 1.0343246875 -4.8395795600
-4.4577293750 1.6032415625 -4.0575248480
-3.9567793750 1.1194512500 -5.6528239832
-3.3551825000 1.1801753125 -4.9015807840
-2.7539081250 1.8625181250 -6.4667309919
-2.7801650000 1.2825556250 -5.6575618248
-6.1442162500 -2.0327309375 -3.2181445840
-5.0254368750 -1.8571700000 -3.2593708000
-3.9008793750 -1.6682387500 -3.2755089920
-3.8967137500 -2.2064375000 -2.4214411600
-2.8103993750 -1.4935781250 -3.2241543120
-2.7770206250 -2.0705037500 -2.4394055840
-6.1008762813 -0.8849803125 -3.2391138720
-6.1476750625 -1.4517337500 -2.4397164320
-5.0211234375 -0.7304221875 -3.1941186240
-4.9828534375 -1.3158537500 -2.4219592400
-3.9206728125 -0.5906050000 -3.2274441200
-3.8529343750 -1.1325528125 -2.4176591760
-2.8095259375 -0.4227034375 -3.2640982800
-2.6850946875 -0.9576771875 -2.3407761040
-6.1135572500 0.1962950000 -3.2708462720
-6.1642072188 -0.3452228125 -2.4071680560
-4.9921521875 0.3790584375 -3.2510038080
-5.0177640625 -0.1584146875 -2.4082171680
-3.9179584375 0.5823140625 -3.1903754960
-3.8456243750 -0.0129671875 -2.4598438400
-6.1635487813 1.3146309375 -3.2114484000
-6.1415972813 0.7285275000 -2.4439517360
-5.0182343750 1.4542465625 -3.2822181280
-5.0580631250 0.9317428125 -2.4107816640
-2.8139871875 1.8499003125 -3.1924607680
-3.9361931250 1.1605834375 -2.4224255120
-2.8201281250 0.7056703125 -3.2338035520
-2.7295996875 1.2401200000 -2.4330591040
-6.1519535625 1.8798121875 -5.6945281280
-5.5818259688 1.9665646875 -4.9043654640
-5.0098090625 2.0526318750 -5.6991196120
-3.9269078125 2.1914009375 -5.6953143144
-3.3105431250 1.7263693750 -4.0939458720
-6.1557725000 1.9039459375 -2.4559711920
-5.0234615625 2.0210940625 -2.4885713760
-3.8778475000 1.6905853125 -3.2768300960
-3.9472253125 2.2287840625 -2.4008345280
-2.6968793750 0.1147831250 -2.4582766480
-2.2583196875 0.8035893750 -4.0370865920
-2.2676856250 1.9327962500 -4.0529657440
-6.7147641419 0.7044071875 -4.8821398320
-6.7157015822 1.2660409375 -4.0748546240
-6.6947250938 1.8403731250 -4.8639811280
-4.4851418750 2.1788771875 -4.8425844240
-6.1025371563 -0.8907718750 -6.4647975303
-5.0111528125 -0.7413603125 -6.4489483233
-2.2038978125 -1.9931037500 -4.8777102480
1.6559568750 -2.0970293750 -2.4412836240
-1.6750515625 0.8568287500 -3.3143390880
-1.6472090625 -1.2982909375 -6.4394749714
-2.2040993750 -1.4900709375 -3.9728317200
-1.6692868750 -1.9157575000 -5.7193946728
-1.1180671875 -1.3114731250 -4.0054578080
-0.5313859375 -1.8514993750 -5.6494888432
-0.5585834375 -1.2466775000 -3.1868655040
-1.1174356250 -1.8205393750 -4.8833573200
0.0243756250 -1.7673403125 -4.8464700240
-0.0133837500 -1.2140243750 -4.0107551760
0.5912903125 -1.9268300000 -5.6572160064
1.1342728125 -1.9947431250 -4.8098158640
1.1754856250 -1.4232731250 -4.0406354400
1.6578650000 -2.0555075000 -5.7174596440
-2.2301815625 -0.9229950000 -4.8183253280
-2.1901512500 -0.3652984375 -4.0063385440
-1.6860971875 -0.7344534375 -5.6465280160
-1.1116306250 -0.7592725000 -4.8684236640
-0.5457775000 -0.1133184375 -6.4437676528
-1.0623418750 -0.2361909375 -4.0336284080
-0.5620906250 -0.6987231250 -5.6897332976
0.0027546875 -0.6739040625 -4.8526740320
0.5423778125 -0.8082387500 -5.7107738216
0.0391703125 -0.1194325000 -4.0137988960
1.0755643750 -0.8797396875 -4.8654965120
1.6921306250 -0.3803215625 -6.4575713763
1.1465815625 -0.3022496875 -4.0897753280
1.6751725000 -0.9262334375 -5.6161957272
-2.2246856250 0.2215440625 -4.7950764880
-1.6631190625 0.3401300000 -5.6404729560
-1.1287096875 0.3714796875 -4.7604428400
-0.5192921875 0.9884087500 -6.4751972001
-1.0621403125 0.9869037500 -4.0438734400
-0.6075093750 0.4370950000 -5.6400429496
0.0003225000 0.3923481250 -4.8919185920
0.5345706250 0.9085228125 -6.4720024300
-0.0098496875 0.9612650000 -4.0499349760
0.5696693750 0.3409496875 -5.6617440256
1.1611612500 0.2418884375 -4.9076941280
1.7491862500 0.1850478125 -5.6561927984
1.0475068750 0.7936456250 -4.0711374000
-2.2082918750 1.3612590625 -4.8597846800
-1.6626218750 1.4173875000 -5.6901050200
-1.1450765625 1.5355300000 -4.8411338000
-0.5904840625 2.0626965625 -6.4738529340
-1.1613090625 2.1021625000 -4.0012613600
-0.5590403125 1.5296846875 -5.6242466904
0.0334728125 1.5158575000 -4.8945737520
-0.0713262500 2.0206640625 -4.0383817920
0.6062731250 1.4674690625 -5.6705475000
1.1484090625 1.3760940625 -4.8178979120
1.6697303125 1.2837515625 -5.7051384064
-1.6529334375 -1.3947318750 -3.1611816880
-1.6521675000 -2.1371671875 -2.4165582560
-0.5556540625 -0.5892209375 -2.4464773760
0.5854853125 -1.3280146875 -3.2803012320
0.5998903125 -1.8626256250 -2.4179441200
1.7332493750 -1.5193512500 -3.2313167680
-1.7220962500 -0.8641253125 -2.4250288640
-0.5412221875 -0.0674293750 -3.1705718880
0.6268996875 -0.2533103125 -3.2233383360
1.6726193750 -0.3667228125 -3.1809334880
-1.6520465625 1.4158287500 -2.3989564880
-1.6463490625 -0.2283031250 -3.2257733120
-0.5612171875 0.8813656250 -3.1213283840
-1.6239890625 0.3538362500 -2.4070514880
0.6034378125 1.4993428125 -2.4193688400
0.5606259375 0.9183187500 -3.1851946960
1.6267706250 0.7188256250 -3.2834485680
1.6842831250 0.2002590625 -2.3828571520
-1.7097203125 1.9413290625 -3.2168105280
-0.5650737500 1.4621478125 -2.4647008400
0.5309290625 2.0079790625 -3.2885128000
1.1277421875 1.9512862500 -4.0506732400
1.6955034375 1.2467312500 -2.4168432000
2.2181550000 1.2281337500 -4.8433874480
1.6805206250 1.8060134375 -3.2618187280
-0.5476318750 -1.7848359375 -2.4446381920
0.5048200000 -0.8155084375 -2.3941642480
0.4293281250 0.3245693750 -2.4537693520
1.6648793750 -0.9605931250 -2.4401438480
-0.5747621875 2.0821137500 -3.2017473520
-0.5236459375 -1.2903628125 -6.4589499872
0.6114062500 -0.2211275000 -6.4465050580
2.1949887500 -2.1580356250 -4.8694080160
2.1858378125 -0.5065131250 -4.0828978160
2.2189075000 0.6746565625 -4.0413348480
1.7417821875 -1.4666762500 -6.4581829698
-1.6733718750 2.0237681250 -6.4252378740
1.7305618750 1.8761303125 -6.4709150966
6.7120178125 -0.4242890625 -4.8157219760
2.2723350000 1.7984750000 -4.0315042800
2.3043968750 0.0964140625 -4.8125228320
2.8049571875 -1.6483915625 -6.4419997048
2.2903009375 -1.5889306250 -4.0673036080
2.7854190625 -2.2154540625 -5.6384278352
3.3402265625 -1.7654590625 -4.0744660640
4.4968728125 -1.8946875000 -4.0499997360
5.6544865625 -2.0356065625 -4.0394568080
2.2827759375 -1.0471037500 -4.9195193040
2.7488959375 -0.5325146875 -3.2580496960
2.8910915625 -1.0821353125 -5.6464412376
3.4370571875 -1.1740343750 -4.8200738480
3.3324059375 -0.6056550000 -4.0364389920
3.9616975000 -1.2928756250 -5.7040763424
4.5000306250 -1.3174796875 -4.8170171760
4.5029734375 -0.7428787500 -4.0148091520
5.0313359375 -1.4694040625 -5.6677395064
5.6095515625 -1.4810812500 -4.8670766560
5.6038003125 -0.9378300000 -4.0329808080
6.1605965625 -1.5081309375 -5.6742647240
2.8288356250 0.0042865625 -5.6908860256
3.3706356250 -0.0394659375 -4.8159033040
3.3848121875 0.5324878125 -4.0182802880
3.9140750000 -0.1641928125 -5.6567367824
4.4995603125 -0.2276446875 -4.9020341040
4.4672565625 0.3008387500 -4.0358950080
5.0844543750 -0.3445643750 -5.6717067040
5.6365071875 -0.3747181250 -4.8497857360
5.5970546875 0.1736931250 -4.0339651600
6.1842331250 -0.3971587500 -5.7031735880
2.7926753125 1.6642343750 -6.4606830943
2.7836856250 1.1122218750 -5.6455695680
3.3641721875 1.0606487500 -4.8873724400
3.3308740625 1.5938218750 -4.0454794880
3.9417428125 0.9648393750 -5.6594839016
4.5004337500 0.8750500000 -4.8450582560
4.4777781250 1.4204378125 -4.0276445840
5.0416828125 0.8124043750 -5.7141918544
5.5745737500 0.7333515625 -4.8483221600
6.1691159375 1.2800159375 -6.4634669065
5.6361578125 1.2915453125 -4.0508157120
6.1471725000 0.7166487500 -5.6498683368
2.8268603125 -1.6442931250 -3.1860236240
2.7854862500 -2.2276553125 -2.4608281920
3.9170984375 -1.8220981250 -3.2619612000
5.0491003125 -2.0450396875 -3.2638780960
6.1834268750 -2.0950809375 -3.2047781200
2.8313887500 0.0060065625 -2.3839580720
2.8438050000 -1.0584181250 -2.4065593120
3.8958268750 -0.7565984375 -3.2618575840
3.9720443750 -1.2913303125 -2.3922473520
5.0516131250 -0.9072328125 -3.2076534640
5.0629946875 -1.4913071875 -2.4496117600
6.1981678125 -0.9472362500 -3.2725688880
6.1751762500 -1.5017212500 -2.4626544240
2.8142559375 1.6972503125 -3.1832000880
2.7684878125 0.5193593750 -3.2631527840
3.9209550000 0.4049793750 -3.1865287520
3.9265987500 -0.1928818750 -2.4699075440
5.0495034375 0.2964984375 -3.2242708800
5.0520968750 -0.3108496875 -2.4887397520
6.1847437500 0.1449637500 -3.2470016400
6.1761168750 -0.4102065625 -2.4247827760
3.9181331250 1.5667318750 -3.2397355680
3.9106753125 1.0048696875 -2.4526425280
5.0582109375 1.3871396875 -3.2603810560
5.0497856250 0.8362021875 -2.4024276240
6.1833193750 1.2726521875 -3.2171213760
6.1642650000 0.6993546875 -2.4439905920
3.3727318750 2.1751550000 -4.8391132880
3.9055556250 2.0875021875 -5.7106857480
4.4383928125 1.9862909375 -4.8325984320
5.0077531250 1.9424712500 -5.6434104696
5.5777853125 1.8473875000 -4.8673356960
6.1679334375 1.8405075000 -5.6346872976
3.9385581250 2.1139606250 -2.4024276240
5.0235556250 1.9043087500 -2.3858361120
6.1439206250 1.8393518750 -2.4057044800
2.7703287500 1.0910981250 -2.4695319360
6.1830640625 -2.0873543750 -6.4598474313
3.9311137500 0.3937053125 -6.4667009044
5.0435371875 0.2180503125 -6.4634435282
5.0752631250 1.4049712500 -6.4611969002
-4.5101356250 6.6498021875 -4.8770756000
-3.9569675000 6.6855728125 -2.4054324880
-6.2088707813 6.3244937500 -5.7197651000
-5.6693699375 6.4778021875 -4.8673356960
-5.0858115625 6.5147956250 -5.6407760328
-6.1712350313 6.3655721875 -2.4523187280
-5.0617987500 6.4874100000 -2.4542485760
-3.8926825000 2.7467459375 -3.2882796640
-5.0287290625 2.6423768750 -6.4564913090
-5.5901155625 2.4988912500 -4.0285771280
-4.5072331250 2.7420696875 -4.0304033600
-3.4099134375 2.3401540625 -4.8153852240
-2.8566243750 2.3921571875 -5.6290415208
-6.6976079750 2.9586687500 -4.8245811440
-6.1838004375 3.0270253125 -5.7059971240
-5.6261307500 3.0428950000 -4.8632299120
-5.5892273438 3.6115028125 -4.0734040000
-5.0835540625 3.2159162500 -5.6688235888
-4.4733706250 3.2582309375 -4.9269278480
-4.4784903125 3.7802375000 -4.0435625920
-3.9019812500 3.3268428125 -5.6931487400
-3.3653412500 3.4928496875 -4.8516637760
-3.4018106250 4.0492293750 -4.0185781840
-2.8009259375 3.4760528125 -5.6801255040
-6.1532153438 4.1336168750 -5.6274652624
-5.5941441250 4.1979287500 -4.8151261840
-5.6290440000 4.7960856250 -4.0836619840
-5.0614628125 4.3335668750 -5.6731922984
-4.4844834375 4.3392106250 -4.8665067680
-4.4815540625 4.9065956250 -4.0803851280
-3.9530034375 4.5139921875 -5.6901853224
-3.3558812500 4.5647993750 -4.9323547360
-3.3717778125 5.0781925000 -4.0192775920
-2.7726534375 4.6105406250 -5.6947081608
-6.1936810313 5.2157118750 -5.6251844152
-5.6174111563 5.3654593750 -4.8602898080
-5.5984857813 5.9279800000 -4.0463602240
-5.0362406250 5.4109453125 -5.6332949576
-4.4717312500 5.4924706250 -4.8221332160
-4.4997753125 6.0917562500 -4.0855270720
-3.9419040625 5.6556421875 -5.6822729456
-3.3683512500 5.6276921875 -4.8710140640
-3.3648037500 6.1871087500 -4.0724714560
-2.8292925000 5.8041534375 -5.6899664336
-6.1723248125 2.4686031250 -3.2482320800
-5.0430534375 2.6224490625 -3.2001801600
-3.3362893750 2.9184100000 -4.0611125520
-2.7560312500 2.9567337500 -3.2696546880
-6.1588295313 3.5680996875 -3.2704706640
-6.1709152188 3.0323331250 -2.4206381360
-5.0644459375 3.7975987500 -3.2291667360
-5.0438193750 3.2156743750 -2.4647137920
-3.9492409375 3.9105409375 -3.1960096160
-3.9138196875 3.3035421875 -2.4797122080
-2.7928768750 4.0268559375 -3.2651992000
-2.8546087500 3.4864400000 -2.4059246640
-6.1522921875 4.6614284375 -3.2247501040
-6.1957974375 4.1044037500 -2.4075436640
-5.0475953125 4.8503462500 -3.2856115520
-5.0714737500 4.3351525000 -2.3769251360
-3.9621140625 5.0919390625 -3.2221597040
-3.9236962500 4.5005009375 -2.4621363440
-2.8351781250 5.2151743750 -3.1793274400
-2.7922856250 4.5916475000 -2.4859809760
-6.1622466875 5.7899365625 -3.2421575920
-6.1623179063 5.2369296875 -2.4330720560
-5.0331768750 5.9254671875 -3.2460302400
-5.0721993750 5.3810065625 -2.4013267040
-3.9300387500 6.1631496875 -3.2760918320
-3.9507190625 5.6319250000 -2.3869629360
-2.8435496875 6.4093784375 -3.2253847520
-2.7984131250 5.8097434375 -2.4685087280
-2.2803975000 3.6130481250 -4.8107484080
-2.2503646875 4.7704737500 -4.8391132880
-2.2974093750 5.3298231250 -4.0206505040
-2.8348556250 2.4077850000 -2.4084891600
-2.2469918750 2.4682000000 -4.9039121440
-2.2509559375 4.1960609375 -4.0595971680
-2.2449359375 5.8491959375 -4.9070983360
-2.2522190625 6.3822615625 -4.0088900880
-6.7129525250 4.6427771875 -4.0554913840
-3.9406946875 3.9179718750 -6.4328491168
-2.8057096875 5.2088453125 -6.4247332641
-5.0585737500 5.9598537500 -6.4627874058
1.0694771875 2.5206868750 -4.8360436640
-1.6881800000 3.1490781250 -6.4585873312
-2.1924356250 3.0114243750 -4.0732097200
-1.6716384375 2.6084337500 -5.6419702072
-1.0719093750 2.6117393750 -4.9005575760
-0.5450653125 4.3806787500 -6.4511875946
-1.1501425000 3.1662646875 -4.0419176880
-0.5065131250 2.6538928125 -5.7055088336
0.0011825000 2.6358059375 -4.7876161360
-0.0287831250 3.2211568750 -4.0317892240
0.5364653125 2.5533534375 -5.7008538848
1.6358006250 2.4156996875 -5.6377763496
1.1178387500 3.6219975000 -4.8719984160
-1.7297153125 3.7352621875 -5.6445023232
-1.1404271875 3.7160600000 -4.8672838880
-1.0944709375 4.2858234375 -4.0785848000
-0.5995006250 3.7974240625 -5.6654599544
0.0026606250 4.3155875000 -4.0245749600
-0.0178450000 3.7548137500 -4.8725553520
0.5477259375 3.6627265625 -5.6425180768
1.0759675000 4.1722093750 -4.0398583200
1.6914856250 3.5342103125 -5.6760352624
-1.6716921875 4.7864912500 -5.6641194224
-1.1550203125 4.8894090625 -4.7885098240
-1.1416634375 5.4993371875 -4.0610607440
-0.6062865625 4.9380796875 -5.6268332048
-0.0170521875 4.8510450000 -4.8805467360
0.0095540625 5.4112678125 -4.0573694240
0.5490428125 4.8236325000 -5.6699750216
1.1125578125 4.7339775000 -4.8532050640
1.6792037500 5.2384078125 -6.4484135352
1.1213056250 5.2904646875 -4.0396899440
1.6472359375 4.6408287500 -5.7137877520
-1.6925606250 6.4701965625 -6.4360729991
-1.6672846875 5.8896965625 -5.6682446344
-1.1334934375 6.0647737500 -4.8376885680
-1.1544828125 6.6301834375 -4.0175161200
-0.5666056250 6.0009456250 -5.6624667472
-0.0322096875 6.0044662500 -4.8160328240
-0.0084656250 6.5842943750 -4.0571492400
0.4973353125 5.9535918750 -5.6962403824
1.0633093750 5.8386340625 -4.8979412720
1.6336506250 6.3540562500 -6.4747563010
1.1236571875 6.3751396875 -4.0519684400
1.6535784375 5.8024334375 -5.6564855136
-1.6825631250 3.1598550000 -3.1643290240
-1.6817971875 2.5422406250 -2.4622270080
-0.5952140625 3.1939996875 -3.2275218320
-0.5301228125 2.6256606250 -2.4018577360
1.1462993750 3.0841750000 -4.0342501040
0.5766031250 2.5562156250 -2.4086057280
1.6886771875 2.9800746875 -3.1919944960
-1.6738825000 4.2555487500 -3.2801717120
-1.7067103125 3.7356921875 -2.3961070480
-0.5861840625 4.3242950000 -3.2189346560
-0.5394887500 3.7546928125 -2.4141362320
0.5486128125 4.2387653125 -3.1895077120
0.5457103125 3.6349781250 -2.4681849280
1.6733181250 4.1177606250 -3.2552909200
1.6778868750 3.5664334375 -2.4414908560
-1.6923590625 5.3181996875 -3.2775813120
-1.7021684375 4.7992434375 -2.3938145440
-0.5628028125 5.4371484375 -3.2760400240
-0.6118765625 4.8982106250 -2.4306370800
0.5456431250 5.3984484375 -3.2257085520
0.5375403125 4.8395425000 -2.4632502160
1.6811790625 5.2148115625 -3.2525580480
1.6727403125 4.6752959375 -2.4185917200
-1.7068715625 6.4977031250 -3.1924348640
-1.6672040625 5.8950984375 -2.4849189120
-0.5643884375 6.5410659375 -3.2577777040
-0.5901078125 5.9908003125 -2.4247827760
0.5565678125 6.5109390625 -3.2603292480
0.5375000000 5.9798218750 -2.4316214320
1.6860300000 6.3523631250 -3.2360960560
1.6422506250 5.7805571875 -2.4487569280
2.2213128125 2.8567184375 -4.0451945440
2.2343203125 3.4388175000 -4.8282336080
2.1856362500 4.5502062500 -4.8581138720
2.2148628125 5.6692946875 -4.8935505440
0.5433453125 3.0760856250 -3.2785268080
1.6531618750 2.3724578125 -2.4835719040
2.2288243750 2.3220134375 -4.9029536960
2.2377468750 4.0006931250 -4.0338097360
2.2239600000 6.2291143750 -4.0865632320
1.6548012500 2.9579162500 -6.4745644651
-0.5880787500 3.2416759375 -6.4628446536
0.5201253125 4.2319793750 -6.4426976881
0.5531546875 6.5266071875 -6.4715104482
2.7505487500 6.6858953125 -5.6870859088
2.7896384375 6.6958256250 -2.4055749600
2.8178975000 2.2408778125 -5.6585228632
6.7037940625 6.3237815625 -4.8255914000
6.7055409375 5.7584256250 -4.0297039520
2.2525818750 5.1247131250 -4.0688967040
3.3252706250 6.7050034375 -4.8734490400
3.8759528125 6.5499481250 -5.6781179440
4.4465090625 6.4680062500 -4.8964517920
5.0362675000 6.4417493750 -5.6362674416
5.6054262500 6.2940309375 -4.8540598960
6.1569146875 6.3195218750 -5.6775791408
3.9266659375 6.5471800000 -2.4581989360
5.0355418750 6.4157075000 -2.4300671920
6.1479115625 6.3320321875 -2.4272566080
6.6996150000 2.3807084375 -4.0483159760
6.6974381250 3.5436837500 -4.0313359040
6.7017515625 4.0685793750 -4.8767388480
6.6639787500 5.2123525000 -4.8479724560
3.9717487500 2.6750837500 -6.4501702150
3.3685528125 2.7256221875 -4.0291470160
5.0509143750 2.5064700000 -6.4679024744
4.5199046875 2.5670193750 -4.0540407600
5.5761325000 2.4217600000 -4.0888816400
2.8361725000 3.9675965625 -6.4562550646
2.7512475000 3.3671015625 -5.7202106488
3.2926712500 3.2802953125 -4.8547981600
3.9157681250 3.7943065625 -6.4604581181
3.3984512500 3.8440387500 -4.0487563440
3.8680112500 3.2335059375 -5.6474307704