ITEM: TIMESTEP
133000
# source: voids-relax.133000.cfg
ITEM: NUMBER OF ATOMS
2298
ITEM: BOX BOUNDS pp pp pp
-6.7187500000 6.7187500000
-6.7187500000 6.7187500000
-6.4760000000 6.4760000000
ITEM: ATOMS x y z
-5.1353690625 -6.5375963750 -5.5314054592
-5.5845443750 -6.2049255313 -4.1735747680
-4.5226325000 -6.5404599063 -4.9215268640
-3.9541053125 -5.2591284375 -5.5906764016
-4.4284221875 -6.0110250938 -4.0332657520
-3.9114815625 -6.3756933125 -5.6611508240
-3.3602484375 -6.3464345000 -4.8534900080
-2.8603600000 -5.7447986563 -6.4252526393
-3.3709581250 -5.7879410938 -4.0312970480
-2.7865075000 -6.3356885313 -5.6667797632
-6.1804343438 -5.7279829688 -5.6509446480
-5.5895700000 -5.6368807500 -4.8555752800
-5.6812782500 -5.0147675000 -4.1323615040
-5.0476625000 -5.3983624375 -5.8008731144
-4.5092487500 -5.4395430000 -4.8186620800
-4.5009040625 -4.8391662500 -4.1480593280
-3.3652606250 -4.7163340625 -4.0296262400
-2.8009796875 -5.1577021875 -5.6932264520
-2.8342778125 -4.5724856250 -6.4398162566
-6.6449013969 -4.1204078125 -4.0350790320
-6.3141334375 -4.5979496875 -5.6367311232
-4.4933253125 -4.2145106250 -4.8456281440
-5.0034128125 -3.9378325000 -6.4406991945
-5.5883525625 -3.9227421875 -4.0471762000
-3.9055959375 -4.2035456250 -5.6478011976
-3.9232662500 -3.6282459375 -6.4632833378
-4.5153628125 -3.6594209375 -4.0583019680
-3.3704609375 -4.1416390625 -4.8194521520
-3.3201106250 -5.2478275000 -4.8713508160
-3.9084715625 -3.6619606250 -3.2885128000
-2.8058171875 -4.0031253125 -5.6698221880
-6.1525797500 -3.4398253125 -5.6977790800
-6.7035992188 -2.9709775000 -3.9881798400
-5.6502483750 -3.4132728125 -4.9044820320
-5.6062204063 -4.4799684375 -4.9279122000
-5.5161824375 -2.8363740625 -4.0337190720
-5.0346818750 -3.3084334375 -5.6654754968
-4.4894150000 -3.1269196875 -4.9236250880
-4.4260437500 -2.5853212500 -4.0499090720
-3.8575703125 -3.0888109375 -5.6707055144
-3.3599125000 -2.9674434375 -4.8309017200
-2.8470300000 -2.3845246875 -6.4742739129
-3.3623581250 -2.3683056250 -4.0793619200
-2.7641340625 -2.9449893750 -5.6279418960
-6.1227579063 -6.2901542188 -3.2687350960
-5.0652521875 -5.9808216250 -3.2881371920
-5.0256250000 -6.5357661875 -2.4609447600
-3.9525465625 -5.8165495313 -3.1910230960
-3.9135509375 -6.4230242188 -2.4613074160
-2.8229768750 -5.7631166563 -3.2105158560
-2.7941803125 -6.3206210625 -2.4065463600
-6.1323388438 -5.2061443750 -3.2051925840
-6.1421092500 -5.7536203750 -2.4087093440
-5.0711512500 -4.9736353125 -3.3461362480
-5.0236362500 -5.4821291250 -2.3589089040
-3.9764384375 -4.7196128125 -3.2814280560
-3.9114412500 -5.2434468750 -2.4325280720
-2.8242131250 -3.9980459375 -2.4116883040
-6.1156763438 -3.9855221875 -3.1805967360
-6.1402185938 -4.5918356250 -2.4864083920
-5.0224134375 -3.8941203125 -3.2158520800
-5.0025528125 -4.4763134375 -2.4164416880
-3.9215193750 -4.1849615625 -2.3903304560
-3.3638900000 -3.5416009375 -4.0836101760
-6.0993054375 -2.8460893750 -3.2750556720
-6.1889335625 -3.3812378125 -2.4366986160
-4.9829340625 -2.6888840625 -3.1834720800
-5.0238512500 -3.3064043750 -2.4738838080
-3.8945368750 -2.5550734375 -3.1949346000
-3.8845796875 -3.1441331250 -2.4140326160
-2.8139603125 -2.4062531250 -3.2407976320
-2.8008587500 -3.4507365625 -3.2617539680
-2.2508887500 -5.6941164375 -3.9983989680
-2.8093109375 -4.5459465625 -3.2144014560
-6.6424397813 -2.4477615625 -4.8589298480
-6.1112392813 -2.2866190625 -5.7188765928
-5.5891588125 -2.2917790625 -4.8446437920
-2.7924603125 -5.1463206250 -2.4993992480
-2.7658809375 -2.9270906250 -2.3569402000
-5.0611000000 -4.4963756250 -5.7313869296
-2.2659656250 -4.0909393750 -4.8499023040
-2.2618671875 -2.3465368750 -4.0427725200
-6.7124952469 -5.1709515625 -4.0109753600
-6.1674792500 -2.2777234375 -2.4547666560
-6.0226162813 -5.1482421875 -6.4356774450
-6.0586502813 -4.0396887500 -6.4738066565
-3.9204578125 -2.4947659375 -6.4508451437
-3.9716815625 -5.8073354375 -6.4405600900
-2.2374512500 -4.6176759375 -3.9987745760
-2.2373303125 -6.2188037813 -4.8500577280
-2.2215143750 -5.1551759375 -4.8701851360
-1.6363112500 -4.6316778125 -3.2406422080
-1.6788812500 -5.1744587500 -5.7199192288
-1.6724715625 -6.3351335625 -5.6498294808
-1.1031246875 -6.3838015000 -4.8503556240
-1.0933287500 -5.8650736875 -4.0095117840
-0.5582609375 -6.4474105938 -5.7087882800
-0.0518284375 -6.5796355938 -4.7942864160
0.6248168750 -6.0740913125 -6.4681795176
0.0445856250 -5.9681043750 -4.0933112240
1.0818800000 -6.7116632238 -4.8671155120
0.4891787500 -6.6367850125 -5.6377944824
1.1021840625 -6.1317758125 -4.0832216160
-1.1589037500 -5.2954096875 -4.8163695760
-0.6065284375 -5.3505437500 -5.6362570800
-0.5144681250 -4.2694162500 -5.6207755544
-1.0986231250 -4.7051540625 -4.0954871600
0.0055765625 -5.4087872500 -4.8864528480
-0.0376787500 -4.8567021875 -4.0586905280
0.5788875000 -5.5497855938 -5.6107895624
1.2041209375 -5.5827746563 -4.8850281280
1.0941215625 -5.0636934375 -3.9834264560
-2.2322375000 -3.4944621875 -4.0892183920
-1.6839068750 -4.0622771875 -5.6150170952
-1.0822965625 -4.1300962500 -4.8744463440
-1.1684443750 -3.5941415625 -4.0311675280
0.0915093750 -4.2939531250 -4.8552126240
1.2116190625 -3.9086193750 -4.0368793600
-0.0021768750 -3.7690306250 -3.9800071280
0.5536115625 -5.0089893750 -6.4498421408
0.6071868750 -4.4058337500 -5.7238126000
1.7845268750 -3.9664140625 -6.4540207150
1.0768812500 -3.3693321875 -4.8670378000
1.1242081250 -4.5088053125 -4.7800262640
-2.2002965625 -2.9046903125 -4.8389319600
-1.6393750000 -2.9576340625 -5.6425388000
-1.0694503125 -3.0222146875 -4.8413798880
-1.0843121875 -2.4900896875 -3.9894491360
-0.5365056250 -3.1067500000 -5.7266218888
0.6445431250 -2.7004671875 -6.4577784788
-0.0357571875 -3.2130540625 -4.8036895680
0.5143740625 -3.2811150000 -5.6721017400
1.1518759375 -2.7943953125 -4.0862523840
1.6849550000 -2.8542862500 -3.2062157920
1.6618693750 -3.4648593750 -5.5867869160
-1.6545325000 -5.7340822500 -3.2437377360
-1.6670428125 -6.3055630000 -2.4731196400
-0.5012725000 -5.8957649375 -3.2416006560
-0.5935746875 -6.4479346563 -2.4304816560
0.5481021875 -6.1187091875 -3.1841585360
0.5231621875 -6.6741788875 -2.3534172560
1.6185065625 -6.2494721875 -3.1974602400
-1.7149878125 -5.1851415625 -2.4119602960
-0.5784709375 -4.8277309375 -3.1924478160
-0.5740500000 -5.3648143750 -2.3529639360
0.5203000000 -4.9672390625 -3.2259157840
0.6223712500 -5.5291012500 -2.4267126240
1.7243671875 -5.1000284375 -3.2905980720
1.7225531250 -5.6516069063 -2.4759820320
-1.7313681250 -3.5215925000 -3.1879664240
-1.6584293750 -4.0935596875 -2.4081783120
-0.5928625000 -3.6889565625 -3.2517809280
-0.5057337500 -4.2392759375 -2.4290698880
0.6217128125 -3.8238287500 -3.2898598080
0.5766434375 -4.3834065625 -2.4722130000
1.7482187500 -4.0141709375 -3.2089745680
1.6418878125 -4.5674331250 -2.4237854720
-1.6303987500 -2.9396546875 -2.4410504880
0.0938743750 -2.6361015625 -4.0482512160
-0.5569575000 -3.1176746875 -2.4686771040
0.6196568750 -2.7240903125 -3.1749108080
0.5167390625 -3.3044693750 -2.4167136800
1.7351843750 -5.6700377813 -5.6802731568
2.2118125000 -3.0206021875 -4.0545976960
1.7646393750 -2.3262731250 -5.6524820504
-1.6747828125 -2.4010796875 -3.2756385120
-0.4797725000 -2.5543478125 -3.2617669200
1.6975459375 -3.4263475000 -2.4336678480
1.7138993750 -2.2970331250 -2.3868075120
1.6292431250 -4.5520203125 -5.6862608664
1.6374534375 -6.2880808125 -6.4251292067
2.1659503125 -6.3505302500 -3.9917934480
2.2058462500 -4.6512831250 -4.8546427360
-1.7103518750 -5.7784219688 -6.4540486914
-1.6548012500 -4.5868906250 -6.4616973654
-0.5172631250 -4.7984775000 -6.4711452925
-1.6534306250 -3.5176553125 -6.4611865386
-0.5872187500 -3.7159659375 -6.4408736579
1.6571796875 -2.8916559375 -6.4198524324
6.6945625000 -5.7463641250 -4.8533993440
6.7158743750 -3.5166878125 -4.7888206720
2.2866190625 -2.4338806250 -4.8014877280
6.6943071875 -6.2417966875 -4.0212333440
6.1871356250 -6.3897973125 -6.3499090420
6.6209250000 -4.6543065625 -4.9487778720
3.3691575000 -6.5157470000 -4.0239532640
4.5178756250 -6.6126046344 -4.0727045920
5.1007675000 -6.5221096563 -6.4024097150
5.6258243750 -6.4756293438 -3.9881927920
2.7918421875 -4.8143471875 -5.6490277520
2.2999221875 -5.8102164375 -4.8357846240
2.7524300000 -6.3560355938 -6.4433601829
3.3416778125 -5.9769341563 -4.8536454320
2.8585996875 -5.2858959375 -3.2530243200
3.9245159375 -6.0048599688 -5.6080968416
4.5132800000 -6.0497089688 -4.8148282880
5.3728365625 -4.8034493750 -5.7026568032
4.4737200000 -5.4475221875 -4.0682361520
4.9970837500 -5.9195130313 -5.6920452296
5.5865331250 -5.9684497188 -4.8725553520
5.6127093750 -5.4000246563 -4.0133973840
2.3018975000 -4.1018640625 -4.0830791440
3.3968925000 -4.8182306250 -4.9122143760
3.4139850000 -5.3721646875 -4.1147726880
3.3759434375 -4.2839556250 -4.0857343040
4.0870693750 -4.9018521875 -5.6063496168
4.5977750000 -4.8870575000 -4.8891339120
4.4984853125 -4.3447200000 -4.0640915120
5.6637584375 -4.8300153125 -4.8440091440
5.0753840625 -3.2181737500 -6.4730045132
5.6263081250 -4.2681531250 -4.0057686560
6.1351996875 -5.7192378438 -5.6821369496
2.3102556250 -3.5480643750 -4.9297254800
2.8269678125 -2.5327537500 -5.6928158736
2.8773584375 -3.6824528125 -5.7011841608
3.4250037500 -3.7150253125 -4.8720502240
3.3629896875 -3.1400078125 -4.0595971680
4.5354115625 -3.7625268750 -4.8209804880
4.4778453125 -2.6326750000 -4.8665067680
5.0400031250 -2.6612700000 -5.6506791320
5.6540296875 -3.6820228125 -4.8202551760
6.2075606250 -3.7165034375 -5.6631493176
5.5631787500 -3.1466862500 -4.0246915280
2.7950403125 -6.3859850938 -3.2949110880
3.9622081250 -6.5315965313 -3.2635802000
5.0472056250 -6.5478303750 -3.1953231600
6.2038921875 -6.4502606875 -3.1726701120
2.2918865625 -5.2357740625 -4.0634309600
2.7733521875 -5.8519721250 -2.4474099200
3.9303343750 -5.4520156875 -3.2227814000
3.8937843750 -5.9973094375 -2.4019743040
5.0417500000 -5.4362158750 -3.2579978880
5.0214593750 -5.9652771250 -2.4060282800
6.1737250000 -5.2528262500 -3.1820344080
6.1527759375 -5.8495721875 -2.4600381200
2.8354871875 -4.1757568750 -3.2228332080
2.8050378125 -4.7261434375 -2.4258836960
3.9383834375 -4.3364693750 -3.2561328000
3.9407484375 -4.8800296875 -2.4173224240
5.0459290625 -4.3297103125 -3.2362126240
5.0393581250 -4.8941793750 -2.4026996160
6.2082459375 -4.1239956250 -3.2543195200
6.1430337500 -4.6740059375 -2.4241610800
2.8034790625 -3.0590871875 -3.2733201040
2.8104262500 -3.6031446875 -2.4120250560
6.1420931250 -3.0168128125 -3.2633082080
3.9284396875 -3.8137103125 -2.3759796400
4.4672968750 -3.1886650000 -4.0375528640
5.0916971875 -3.7902484375 -2.4244201200
5.0023781250 -3.2167359375 -3.1970716800
6.1741818750 -3.5640818750 -2.4320229440
3.3691978125 -2.5773259375 -4.8438019120
3.9961378125 -3.7773081250 -5.6718206816
3.9072084375 -2.6869221875 -5.6856326944
5.6265231250 -2.5822306250 -4.8578159760
6.2013121875 -2.5162525000 -5.6262581360
2.8041643750 -2.5480859375 -2.3871701680
3.9021021875 -3.2744365625 -3.2222503680
5.0823178125 -2.6335081250 -2.4220240000
6.2109065625 -2.4698796875 -2.4096807440
3.9402915625 -2.6941112500 -2.4498708000
3.7266890625 -5.4375085625 -6.4392430011
2.8256778125 -5.7435247813 -5.8143690984
2.8288356250 -4.3583456250 -6.4317190548
6.2188750000 -5.2012262500 -6.4143882426
2.7418950000 -3.1231034375 -6.4656144388
3.8891215625 -4.3912271875 -6.4350701258
5.0878943750 -3.7692321875 -5.6378359288
6.1411928125 -3.0912431250 -6.3985649138
6.1918925000 -4.2375290625 -6.4166092516
-5.6084013125 -1.7223112500 -4.0062219760
-5.0594337500 -2.1689065625 -5.7577429544
-4.5342290625 -2.0386971875 -4.8869838800
-4.4465225000 -1.5140434375 -4.0197309120
-3.9289100000 -1.9596175000 -5.6212508928
-3.3343812500 -1.8208618750 -4.8917243120
-3.3539731250 -1.2869093750 -4.0379932320
-2.7474043750 -1.8409375000 -5.6334555624
-6.1483200625 -1.1758618750 -5.6184765744
-5.5538920938 -1.1881034375 -4.8658073600
-5.0383234375 -0.4071562500 -6.4618236474
-5.6174514688 -0.6166200000 -4.0832734240
-5.0181537500 -0.9737350000 -5.6630314544
-4.4545043750 -0.9468734375 -4.8504074320
-3.9387462500 -0.2480159375 -6.4547648074
-4.5052846875 -0.4171806250 -3.9976995600
-3.9068456250 -0.8376265625 -5.7070902728
-3.3810900000 -0.7147406250 -4.8265239440
-3.3218978125 -0.1561168750 -3.9901485440
-2.8251537500 -0.7074037500 -5.6894198592
-6.1166021875 -0.1126868750 -5.6296321320
-5.5790175313 0.0059528125 -4.7777726160
-5.6086875313 0.6246556250 -4.0868222720
-5.0474878125 0.1430153125 -5.6151349584
-4.4444128125 0.1306931250 -4.8503038160
-3.8914059375 0.9138978125 -6.4677114712
-4.4617606250 0.7031306250 -4.0719404240
-3.9260881250 0.3259400000 -5.6917965512
-3.3625059375 0.3612268750 -4.8641106480
-2.8133825000 1.0043456250 -6.4242673806
-3.3584881250 0.9220409375 -4.0216737120
-2.8062740625 0.3997387500 -5.6803418024
-6.1341985938 1.5924915625 -6.4108769554
-6.1239981875 0.9946571875 -5.6565515688
-5.6007594063 1.2071846875 -4.8360307120
-5.6150730313 1.7865693750 -4.0258831120
-5.0189196875 1.1795975000 -5.6513642928
-4.4950990625 1.3046468750 -4.7856603840
-4.4778184375 1.9177328125 -4.0862782880
-3.9674218750 1.4443028125 -5.6245044352
-3.3514737500 1.4502421875 -4.8993918960
-2.7865075000 1.5792287500 -5.6446279576
-6.1931354688 -1.7080271875 -3.2417690320
-5.0301265625 -1.5500559375 -3.2548894080
-5.0851262500 -2.1047962500 -2.4392760640
-3.8973318750 -1.4008996875 -3.1944683280
-3.9047628125 -1.9797334375 -2.4302226160
-2.7953225000 -1.2783765625 -3.2265504320
-2.7545262500 -1.8477771875 -2.4182290640
-6.1890289688 -0.6029137500 -3.2414970400
-6.1011141250 -1.1380353125 -2.4129316960
-5.1114234375 -0.3842990625 -3.2428829040
-5.0182343750 -0.9695962500 -2.4740392320
-3.9248653125 -0.2504212500 -3.2629196480
-3.9413262500 -0.8066800000 -2.4576160960
-2.7434268750 -0.1596643750 -3.2316017120
-2.8254896875 -0.7222118750 -2.4169338640
-6.1319048125 0.4550609375 -3.2562752720
-6.1742221875 -0.0498396875 -2.3484825440
-5.0396403125 0.6997443750 -3.2695122160
-5.0198871875 0.1503790625 -2.4034119760
-3.9430193750 0.9123390625 -3.2121348560
-3.9260343750 0.3074096875 -2.4666695440
-6.1492338125 1.5940906250 -3.2008148080
-6.1607873750 1.0062134375 -2.4280725840
-5.0157753125 1.7448056250 -3.2729056400
-5.0601459375 1.2061768750 -2.3706563680
-2.8279621875 2.1823171875 -3.2093760800
-3.9195037500 1.4591915625 -2.3893979120
-2.8104128125 0.9896853125 -3.1695875360
-2.7735671875 1.5988206250 -2.4680942640
-2.2946950000 -0.6726678125 -4.8379346560
-2.2840525000 0.9905721875 -4.0212722000
-2.2620553125 2.0839278125 -4.0061831200
-3.3576415625 1.9821253125 -4.0463472720
-6.1357815313 2.1718359375 -2.4724590880
-3.9320812500 2.0047003125 -3.2404090720
-2.8267796875 0.3964600000 -2.4343284000
-2.2494106250 0.4608928125 -4.8754954560
-6.7036747375 -1.2957378125 -4.8362120400
-6.7186594627 -0.6994218750 -4.0898659920
-6.7090005159 -0.1017890625 -4.8431154560
-6.6956561781 1.5255325000 -4.0304292640
-6.2022192188 2.1771034375 -5.6465888904
-5.0385921875 -1.5500693750 -6.4374228566
-2.8168628125 -1.2936550000 -6.4625558240
-6.1860525625 0.4419459375 -6.4639445374
-5.0779909375 1.7512421875 -6.4627170764
-2.8113265625 2.1186234375 -6.4495375098
1.1689415625 -2.2272118750 -4.9065154960
-2.1832175000 -0.0949090625 -4.0616435840
-2.2036693750 1.5457156250 -4.8659498320
1.6826975000 -1.7696784375 -3.2879299600
-1.6918350000 0.9865543750 -3.2437506880
-2.1863753125 -1.7741665625 -4.8277155280
-2.2255187500 -1.2154353125 -4.0197309120
-1.6572334375 -1.8341650000 -5.7191485848
-1.0716137500 -1.3330000000 -4.0480439840
-0.6149403125 -1.9922168750 -5.6770506992
-0.5517975000 -1.4367106250 -3.1693673520
-1.1412065625 -1.9256743750 -4.8039874640
-0.0389150000 -2.0812940625 -4.8866989360
-0.0165146875 -1.5385400000 -4.0578356960
0.5543371875 -2.1720240625 -5.6029082704
1.0726215625 -1.7143293750 -4.0330714720
-1.6353975000 -0.1549881250 -6.4399052369
-1.7255228125 -0.7195109375 -5.6326499480
-1.1252293750 -0.7991415625 -4.9118517200
-0.6048084375 -0.3130400000 -6.4271639659
-0.5861168750 -0.2602037500 -3.2241025040
-0.5203134375 -0.8744453125 -5.6088260392
0.0710440625 -0.9760193750 -4.8774771120
0.6516381250 -1.0272834375 -5.6724112928
-0.0363215625 -0.4436390625 -4.0292635840
0.5245865625 -1.6134540625 -6.4176689842
1.1572509375 -1.1249875000 -4.7803241600
1.1512175000 -0.5207031250 -4.0642210320
1.6969009375 -1.2287921875 -5.6919778792
-1.7403040625 0.9477065625 -6.4511499042
-1.6537128125 0.4060140625 -5.6208817608
-1.1398628125 -0.2690456250 -4.0626538400
-1.0734546875 0.3162650000 -4.8642660720
-0.5085959375 0.2810856250 -5.6867245480
-0.0005375000 0.1395081250 -4.7880046960
0.0479718750 0.7483478125 -4.0757483120
0.5371775000 0.0649837500 -5.6673988688
1.1015928125 0.0490065625 -4.8437371520
1.6422909375 -0.1425046875 -5.6424766304
1.1365034375 0.6086246875 -4.0354416880
-1.6390525000 1.5387550000 -5.6958505272
-1.1396343750 0.8443184375 -4.0259219680
-1.1405750000 1.4426903125 -4.7643154880
-0.6094846875 1.3576846875 -5.6578195696
-0.0338221875 1.3225993750 -4.8498504960
0.5461806250 1.7131200000 -6.4099106067
0.0022171875 1.8730128125 -4.0344832400
0.5187681250 1.1549665625 -5.6324893432
1.1381562500 1.1466756250 -4.9189494160
1.7141546875 1.0537284375 -5.6933987136
1.1149631250 2.1980525000 -4.8216798960
1.6921037500 0.4370815625 -6.4042729897
-1.6480018750 -1.2945956250 -3.2487760640
-0.5153818750 -0.8291340625 -2.4510623840
0.5409937500 -1.5583200000 -3.2125881760
0.5932118750 -2.1228159375 -2.4325669280
1.6775509375 -1.2577096875 -2.3811474880
-1.6940656250 -0.7607775000 -2.4104708160
-0.5418000000 0.2902231250 -2.3939440640
-0.5374059375 0.8154681250 -3.2950147040
0.5667265625 -0.4757278125 -3.2971776880
1.6666531250 -0.7162590625 -3.2241672640
-1.6639387500 1.5393059375 -2.4043315680
-1.6690450000 -0.1638971875 -3.1653781360
-0.5682718750 1.8802153125 -3.2106842320
-1.6465103125 0.4412740625 -2.4313753440
-0.5744128125 1.3303393750 -2.3876882480
0.5473228125 0.5802178125 -3.2092077040
1.6659409375 0.4667112500 -3.1933285520
1.6960275000 -0.1255465625 -2.4681331200
-1.6645971875 2.0777196875 -3.2688387120
0.5520931250 1.7704578125 -3.2034699680
1.1066856250 1.6469000000 -3.9970260560
1.6698781250 1.0645187500 -2.4561654720
2.2386740625 -1.2585159375 -4.8279227600
2.2206006250 0.3478834375 -3.9988393360
2.2305712500 0.8901268750 -4.8370150640
1.7214646875 1.6272543750 -3.2590729040
1.6686687500 1.6287593750 -6.4477735769
2.2275478125 2.0592565625 -4.8381936960
-1.6996556250 -1.8591990625 -2.4244460240
-0.5937896875 -2.0152084375 -2.4152760080
0.5891806250 -0.9996425000 -2.3958221040
0.5528053125 0.0362812500 -2.3846056720
0.5745337500 1.1827687500 -2.4708918960
-1.0959221875 2.0584771875 -4.0659177440
1.6535918750 2.1349500000 -2.3692705040
-0.5150593750 -1.4063821875 -6.4492095651
1.6811790625 2.2058462500 -5.6630379304
6.7082284375 0.4443109375 -4.0181378160
2.2579031250 -0.1648646875 -4.9121107600
2.2556187500 -1.8338290625 -4.0653090000
2.2608728125 1.4868996875 -4.0796598160
6.7009587500 -1.8678259375 -4.0759684960
6.7181990625 0.9780618750 -4.8937707280
3.3845165625 -2.0025771875 -4.0158453120
3.9570884375 -2.1060996875 -6.4174627884
4.4950721875 -2.1121062500 -3.9950832560
6.2023871875 -1.9586365625 -6.4699350447
5.6159746875 -2.0200325000 -4.0946064240
2.8341434375 -0.8677534375 -6.4319063407
2.8041375000 -0.8265675000 -3.2009961360
2.7764965625 -1.4310400000 -5.6547227464
3.3742771875 -1.4832312500 -4.8900923600
3.3737934375 -0.9510256250 -4.0093822640
3.9280634375 -1.4959565625 -5.6911269328
4.4773884375 -1.5864178125 -4.8743038720
4.5145431250 -1.0337065625 -4.0373715360
5.0620943750 -1.5133581250 -5.6761777344
5.5887234375 -1.4235015625 -4.8414835040
6.1541868750 -0.8635878125 -6.4686298846
5.6145771875 -0.8568421875 -4.0432387920
6.1734025000 -1.4157078125 -5.6362518992
2.2677125000 -0.6962506250 -4.0223472160
2.8037075000 0.3296487500 -6.4427208722
2.8196309375 -0.2536731250 -5.7032979272
3.3382243750 -0.4042403125 -4.8311996160
3.3850809375 0.1911081250 -4.0705545600
3.9109575000 -0.3533121875 -5.6437303840
4.4597450000 -0.4798531250 -4.8308887680
4.4998290625 0.1142859375 -4.0834936080
6.2065528125 -0.3001803125 -5.6782617112
5.6221962500 -0.3121128125 -4.9028112240
5.5994465625 0.2010250000 -4.0109494560
2.8142962500 0.9047065625 -5.6528188024
3.3463003125 0.7621212500 -4.8249567520
3.8863265625 1.2387896875 -6.4640013320
3.3463271875 1.3655859375 -4.0711762560
3.9255237500 0.6897468750 -5.6135431576
4.5047471875 0.7121471875 -4.8278839040
5.0348565625 0.7380546875 -5.6757956504
4.4530262500 1.2503459375 -4.0024658960
5.0219565625 -0.3736565625 -5.6243153360
5.5999975000 0.7696865625 -4.8397349840
6.1686859375 1.4627793750 -3.2168752880
6.1381559375 0.8982431250 -5.6716678480
2.7862253125 -1.9918137500 -3.2313556240
3.9266390625 -2.1125900000 -3.1952713520
5.0884318750 -2.0741050000 -3.2284025680
6.1488118750 -1.9056121875 -3.2218618080
2.7935890625 -0.2249437500 -2.4678870320
2.8172256250 -1.4186909375 -2.4611001840
3.9614421875 -0.9131050000 -3.2381165680
3.9204040625 -1.5036696875 -2.4734434400
5.0773056250 -0.9696500000 -3.2186626640
5.0019481250 -1.5290128125 -2.4043833760
6.1853753125 -0.8569496875 -3.2295682480
6.1773262500 -1.3694962500 -2.3457755760
2.7827046875 1.4007787500 -3.2118240080
2.8358903125 0.3373350000 -3.2671938080
3.9306568750 0.1500296875 -3.2385439840
3.9024112500 -0.3962181250 -2.3766660960
5.0108840625 0.1702262500 -3.2147641120
5.0633575000 -0.3976156250 -2.4359214960
6.1644800000 0.2953428125 -3.2119276240
6.1596021875 -0.2803734375 -2.4401697520
3.8719618750 1.2639984375 -3.2222374160
3.9318931250 0.7108706250 -2.4214282080
5.6298018750 1.3248031250 -4.0260514880
5.0187718750 1.8325525000 -2.4147061200
6.1664687500 0.8637221875 -2.4434984160
6.6945356250 2.0788887500 -4.8509643680
2.7989237500 1.9766428125 -5.6103530800
3.4031006250 1.9250428125 -4.8734878960
3.9566181250 1.8053281250 -5.6691305512
4.4950587500 1.8037828125 -4.8323005360
5.0560340625 1.8471456250 -5.6821913480
5.5850146875 1.8789656250 -4.8172762160
6.1327675000 2.0120640625 -5.6716924568
3.9476418750 1.8515396875 -2.4595588960
5.0459425000 1.2883471875 -3.2630232640
6.1617656250 1.9783225000 -2.4075695680
2.7721965625 0.8541815625 -2.3751118560
5.0529434375 0.7461037500 -2.4211432640
2.8481050000 1.9857400000 -2.4342506880
5.0954462500 -2.0907809375 -6.4406839111
3.9468221875 -0.9277787500 -6.4552639775
5.0604684375 0.1655500000 -6.4724174250
6.1633512500 0.2972240625 -6.4031977146
5.0454318750 -0.9227531250 -6.4374036876
-6.0489766250 6.6535109375 -5.5401700776
-6.6417078406 6.6167728125 -4.8338159200
-6.1725855000 6.6354912500 -2.3595953600
-3.9467415625 3.0692728125 -3.2761306880
-6.1076514688 2.7231228125 -6.4621896710
-5.5990380625 2.2972884375 -4.9165014880
-5.0240931250 2.8857568750 -6.4110602262
-5.5966327500 2.8348690625 -4.0559317520
-4.9994487500 2.3081862500 -5.6331861608
-4.4464418750 2.5048843750 -4.8359530000
-3.9844068750 3.0890259375 -6.4486683010
-4.5518590625 3.0559831250 -4.0254556960
-3.8681993750 2.5200418750 -5.6535285720
-3.3433843750 2.5886671875 -4.7911261280
-2.8102784375 2.7217656250 -5.6814802832
-6.1838004375 3.3124646875 -5.6988825904
-5.6422503750 3.4204484375 -4.8317695040
-4.9955921875 4.0138350000 -6.4585080650
-5.5801731563 3.9983281250 -4.0374492480
-5.0912940625 3.4743328125 -5.6278020144
-4.4850746875 3.5925693750 -4.8973325280
-4.4711803125 4.1500509375 -4.0745178720
-3.8833703125 3.6360934375 -5.6335721304
-3.3390843750 3.7350337500 -4.8074456480
-3.4007759375 4.3430403125 -4.0707099840
-2.7906865625 3.7730484375 -5.6553677560
-6.6940220438 4.2676425000 -4.8649784320
-6.6979261750 4.8573875000 -4.0856306880
-6.1379637813 4.4730212500 -5.6559337584
-5.5865022188 4.5623671875 -4.8281947520
-5.6255583125 5.1538859375 -3.9947983120
-5.0580093750 4.5964715625 -5.7032150344
-4.5204825000 4.7454934375 -4.8482833040
-3.9216268750 5.8699971875 -5.7242646248
-4.4619890625 5.2986078125 -4.0269710800
-3.9513103125 4.7331846875 -5.6340707824
-3.3584209375 4.8854450000 -4.8975527120
-2.8029146875 5.4261834375 -6.4518635594
-3.3481009375 5.4183628125 -4.0485491120
-2.7712021875 4.8761865625 -5.6208053440
-6.1795474688 5.5762131250 -5.6334322488
-5.5757670000 5.6459940625 -4.8514824480
-5.6028328125 6.3361709375 -4.2946759680
-5.0388206250 5.7782728125 -5.7063209240
-4.4690303125 5.8346700000 -4.8783319440
-4.5420631250 6.3614200000 -3.9954847680
-3.4119425000 5.9970756250 -4.8491640400
-3.4000368750 6.5392384375 -4.0332916560
-2.8212300000 6.0077315625 -5.6528900384
-6.1505144063 2.7940862500 -3.2058013280
-5.0812293750 2.8906615625 -3.1744574880
-5.0320481250 2.2889706250 -2.4429932880
-3.9391225000 2.5471318750 -2.3829478160
-3.3840193750 3.1790706250 -4.0425393840
-2.7928365625 3.2566184375 -3.2761047840
-6.1144508438 3.8460946875 -3.2242320240
-6.2666977188 3.3075465625 -2.2864295120
-5.0198334375 4.0483693750 -3.2213566800
-5.0542737500 3.4736878125 -2.4297563440
-3.9395390625 4.1804062500 -3.2054645760
-3.9068456250 3.5996240625 -2.4227881680
-2.8385778125 4.3242009375 -3.2399039440
-2.8226946875 3.7892406250 -2.3894367680
-6.1811908750 5.0101046875 -3.2147123040
-6.1748120938 4.4568962500 -2.4834553360
-5.0201021875 5.1427596875 -3.2660151760
-5.0867521875 4.6071006250 -2.4073752880
-3.8846065625 5.3049503125 -3.2159038880
-3.9158353125 4.7477106250 -2.4144859360
-2.7895309375 5.4919465625 -3.2049724000
-2.7596056250 4.8986943750 -2.4529792800
-6.1128920938 6.1046293750 -3.3095598000
-6.1691307188 5.6023356250 -2.4140067120
-5.1093675000 6.2976859375 -3.2094149360
-5.0434162500 5.7106956250 -2.4641180000
-3.9423206250 6.4350037500 -3.2223151280
-3.9467281250 5.8749421875 -2.4415426640
-2.8172121875 6.5720393750 -3.2598111680
-2.8028609375 6.0339750000 -2.3856418320
-2.2771456250 4.3565181250 -4.0205857440
-2.2760840625 6.0429512500 -4.8279875200
-2.2474487500 6.6378831250 -4.0826517280
-2.8245490625 2.7275303125 -2.3977908080
-3.8865550000 5.2822409375 -6.4726194244
-2.2678334375 2.6421753125 -4.8261871920
-2.2653206250 5.4751765625 -4.0513337920
-6.7091600056 2.6216025000 -4.0030098800
-6.7046255750 3.1933546875 -4.7970192880
-6.1819742813 3.9013362500 -6.4504586560
-3.8943084375 4.1933600000 -6.4641812223
-2.8235412500 4.3440212500 -6.4758769214
-6.1848472188 5.0414006250 -6.4647215150
-5.0570015625 6.4117434375 -6.4649909036
-3.9837887500 6.4990065625 -6.4050547724
-5.0600518750 5.2133468750 -6.4279471734
-0.5634343750 2.4425746875 -5.6209866720
1.6600956250 6.6217581250 -5.6005820912
1.7278609375 6.6061571875 -2.4368151840
-2.1976896875 3.2208746875 -4.0549992080
-1.7229965625 2.6398237500 -5.6459076152
-1.1327812500 2.6081246875 -4.8769460800
-1.1232271875 3.1421712500 -4.0293412960
0.0438734375 2.4155384375 -4.8855332560
0.5467987500 2.9123765625 -6.4584430459
-0.0138943750 2.9385393750 -4.0050303920
0.5997693750 2.3378293750 -5.7041695968
1.1191825000 3.3595900000 -4.8451100640
-2.2361478125 3.7978540625 -4.8235708880
-1.7103787500 4.3187050000 -6.4329358952
-1.6917409375 3.7536446875 -5.6554092024
-1.1031784375 3.6996393750 -4.8964517920
-1.1187390625 4.2002803125 -4.0071156640
-0.5803925000 3.0126337500 -6.4136051647
-0.5259571875 3.6218228125 -5.7015830824
0.0319946875 4.0888162500 -4.0844779600
-0.0200353125 3.4837793750 -4.8204365040
0.5587446875 3.4681784375 -5.6447302784
1.6527453125 3.8062121875 -6.4468704339
1.0952771875 3.9298640625 -4.0558281360
1.6897925000 3.2637806250 -5.6103750984
-2.1952709375 4.8988556250 -4.8443977040
-1.7036196875 5.4942443750 -6.4744212678
-1.6477734375 4.9174128125 -5.6929816592
-1.1350790625 4.7788453125 -4.8045703040
-1.1164412500 5.3876312500 -4.0789086000
-0.5815212500 4.7405215625 -5.6523188552
-0.0122146875 4.6541721875 -4.8617274800
0.5324609375 5.0803828125 -6.4501804470
-0.0330965625 5.2084421875 -4.0308955360
0.5646840625 4.5398996875 -5.6206810048
1.1676515625 4.4933925000 -4.8771015040
1.1068737500 5.0074575000 -3.9926482800
1.7151759375 4.4107653125 -5.6979694744
-1.6988896875 6.0044796875 -5.6044910048
-1.0983006250 5.9573946875 -4.8607172240
-1.1618331250 6.4852331250 -4.0109494560
-0.5417731250 5.8225225000 -5.6358516824
0.0429596875 5.7647412500 -4.8561192640
0.0050390625 6.2977262500 -3.9911976560
0.5842625000 5.6890075000 -5.7210240344
1.0833581250 5.5632459375 -4.8091682640
1.1793421875 6.1661865625 -4.0816414720
1.6437959375 5.5422834375 -5.6763020736
-1.6932190625 3.1977621875 -3.1746258640
-1.6917946875 2.6140103125 -2.4278783040
-0.5669012500 3.0565609375 -3.2029518880
-0.5479543750 2.4740184375 -2.4540542960
1.1509890625 2.7928903125 -4.0701400960
0.5458312500 2.3517103125 -2.4308313600
1.6729956250 2.6883868750 -3.2016825920
-1.6789350000 4.3667843750 -3.2528948000
-1.6881665625 3.8114259375 -2.4676020880
-0.5193996875 4.1701400000 -3.2518586400
-0.5722090625 3.6272515625 -2.4148097360
0.5439634375 3.9636459375 -3.1925125760
0.5613784375 3.4120768750 -2.3671463760
1.6495606250 3.8500184375 -3.2288688400
1.7409625000 3.2737243750 -2.4621104400
-1.6774837500 5.4449153125 -3.2604328640
-1.6802921875 4.8997021875 -2.3841005440
-0.5901884375 5.2529471875 -3.2064489280
-0.5602362500 4.7002896875 -2.3906931120
0.5432512500 5.1351809375 -3.2347620000
0.6012071875 4.5644903125 -2.4634704000
1.7327790625 4.9661909375 -3.2943152960
1.6774165625 4.4343212500 -2.4447547600
-1.7339212500 6.5370481250 -3.2064618800
-1.6513478125 5.9758175000 -2.4057562880
-0.5655575000 6.4312681250 -3.2454733040
-0.5373253125 5.8533615625 -2.4778212160
0.6310653125 6.2628021875 -3.2814410080
0.5305931250 5.7161646875 -2.4542485760
1.6992928125 6.0148265625 -3.1946496560
1.6179690625 5.4773937500 -2.3617972000
2.2325465625 2.6446478125 -4.0646354960
2.2241346875 4.2907550000 -4.7982497280
2.1973940625 5.4665900000 -4.8589168960
0.5933865625 2.8994900000 -3.2620648160
2.2204259375 3.7310696875 -3.9932829280
-1.6362171875 3.1877781250 -6.4675755788
-0.5478200000 4.1914921875 -6.4732215629
-0.6000784375 6.3838740625 -6.4392622996
2.3003790625 4.8975521875 -4.0827812480
2.2423828125 6.0431662500 -4.0890629680
2.3079981250 6.6049881250 -4.9295700560