ITEM: TIMESTEP
131000
# source: voids-relax.131000.cfg
ITEM: NUMBER OF ATOMS
2298
ITEM: BOX BOUNDS pp pp pp
-6.7187500000 6.7187500000
-6.7187500000 6.7187500000
-6.4760000000 6.4760000000
ITEM: ATOMS x y z
-6.6638732656 -6.4450912813 -4.1379567680
-5.5710034063 -6.3504361875 -4.1150705840
-5.0178312500 -6.6830669875 -5.7268045120
-4.4811912500 -6.6730513469 -4.8966719760
-3.8984068750 -5.3619521875 -5.8192520024
-4.4515884375 -6.1413406250 -4.0083331520
-3.9240321875 -6.5851601531 -5.7183131808
-3.3798134375 -6.4816466563 -4.8916725040
-3.3173021875 -5.9549705625 -4.0177233520
-2.7927156250 -6.3884320625 -5.6573558880
-6.1270767188 -5.8790540625 -5.5984281736
-5.5475684063 -5.7311380938 -4.8030290160
-5.6014003750 -5.1510371875 -4.0959016240
-5.0363615625 -5.6517802500 -5.6573934488
-4.4202790625 -5.5960132813 -4.8717911840
-4.4901406250 -5.0324646875 -4.0918735520
-3.3384796875 -4.8835100000 -4.0519684400
-2.7291428125 -5.3148671875 -5.6330605264
-6.7029805563 -4.7906165625 -4.9124475120
-6.1255502188 -4.8270187500 -5.7269314416
-5.0414946875 -4.5839075000 -5.5815711456
-4.9642828125 -4.0576546875 -6.4654781449
-5.5451012813 -4.0512450000 -3.9949148800
-4.4340256250 -4.4388228125 -4.8500965840
-3.8678500000 -4.4257750000 -5.7118566088
-4.4676865625 -3.8707121875 -4.0874957760
-3.3097100000 -4.3084656250 -4.8431413600
-3.3828503125 -5.4211349688 -4.8959596160
-2.8192815625 -3.6313903125 -6.4423016159
-3.9102721875 -3.8417543750 -3.2184036240
-2.7255684375 -4.1986275000 -5.6673949832
-6.6591941938 -3.7480278125 -4.8752105120
-6.1527436875 -3.6104412500 -5.7698219896
-5.6290130938 -3.4984934375 -4.8438278160
-5.6342483438 -4.5614131250 -4.8613259680
-5.6418297813 -2.9622296875 -4.0061313120
-5.0728712500 -3.4783371875 -5.6934220272
-4.5379512500 -3.2999409375 -4.8848727040
-3.8706450000 -2.8075909375 -6.4699117699
-4.4378687500 -2.7923796875 -3.9859909520
-3.9342178125 -3.3334675000 -5.6281439472
-3.3764406250 -3.1657809375 -4.8637609440
-3.3337496875 -2.5968237500 -4.0802944640
-2.8066771875 -3.0815009375 -5.6413757104
-6.1375069063 -6.3732638125 -3.2546044640
-5.0603071875 -6.1768425000 -3.2510556160
-3.8897128125 -6.0498769375 -3.2266799520
-3.9301328125 -6.6257440906 -2.4613203680
-2.7504009375 -5.8899559063 -3.2036642480
-2.7951075000 -6.4456314688 -2.3935943600
-6.1022280938 -5.3235478125 -3.2094796960
-6.1570866875 -5.8597887188 -2.3636622880
-5.0303146875 -5.1117862500 -3.2426627200
-4.9753284375 -5.6483066563 -2.3780390080
-3.9387462500 -4.8965175000 -3.2805732240
-3.8895246875 -5.4538848438 -2.4784040560
-2.7747362500 -4.1792909375 -2.4473322080
-6.1578754688 -4.1427812500 -3.2755348960
-6.1666488125 -4.7124640625 -2.4805799920
-4.9788221875 -4.0111340625 -3.2014624080
-5.0690684375 -4.5710746875 -2.4008604320
-3.8853053125 -4.3911868750 -2.3682732000
-3.3757150000 -3.7393606250 -4.0830920960
-6.2212332813 -3.0168934375 -3.2258510240
-6.1054625000 -3.5915884375 -2.4411282000
-5.0574718750 -2.8401634375 -3.2798608640
-5.0638681250 -3.4072393750 -2.4802820960
-3.8620046875 -2.7172775000 -3.2180021120
-3.9587009375 -3.2790187500 -2.4114551680
-2.7837528125 -2.5311815625 -3.1954785840
-2.8370996875 -3.6174287500 -3.2580756000
-2.7937906250 -4.7454128125 -3.2467426000
-2.2682634375 -2.4305346875 -4.0816155680
-6.1133919688 -2.4891893750 -5.6327030512
-5.5301184688 -2.4151756250 -4.8561710720
-5.0164740625 -2.2808678125 -5.7310281592
-6.1350250000 -2.4844056250 -2.3787254640
-2.7927828125 -5.3038753125 -2.4556085360
-2.7771953125 -3.1063737500 -2.3744383520
-3.9465400000 -5.9724433438 -6.4400773690
-2.2405821875 -3.5425146875 -4.0051987680
-6.6903271344 -5.3255365625 -4.0098744400
-6.7134076800 -2.5994171875 -4.9198301520
-4.9866428125 -2.3048940625 -2.4284352400
-2.9147146875 -4.7809953125 -6.4678503167
-6.0901746563 -4.2278271875 -6.4599874424
-5.0156678125 -2.9077809375 -6.4467208383
-2.7946237500 -2.5125975000 -6.4726486570
-4.8632865625 -5.0779237500 -6.4630231322
-2.2389025000 -5.7961554375 -4.0687542320
-2.2164484375 -5.2148921875 -4.7991693200
-2.2147821875 -4.0922025000 -4.8370409680
-1.6439840625 -4.6571821875 -3.2224187440
-1.6964440625 -5.1753456250 -5.7069750000
-2.1981465625 -4.6370796875 -4.0195495840
-2.2196600000 -6.3752445000 -4.8348779840
-1.6658200000 -6.2735280000 -5.6610355512
-1.1162800000 -6.2470238750 -4.8318860720
-1.0727156250 -5.6932040313 -4.0258054000
-0.5666056250 -6.3323573750 -5.6694323328
-0.0273050000 -6.3477245000 -4.8226383440
0.0753306250 -5.7926563125 -4.0339522080
1.1135253125 -6.5547439688 -4.8846136640
0.5286043750 -6.4767554063 -5.6372258896
1.1586484375 -6.0081965000 -4.0553100560
1.7029343750 -6.6397108938 -5.6509731424
-1.1344743750 -5.1424506250 -4.8554328080
-0.6011668750 -5.1948434375 -5.7067353880
-0.5397171875 -4.0461118750 -5.6839282112
-1.0600978125 -4.5892825000 -4.0057298000
-0.0303956250 -5.2569650000 -4.9086266720
0.0466012500 -4.7279843750 -4.0701530480
0.5736737500 -5.3177159375 -5.6520766528
1.1454796875 -5.4669622188 -4.8909860480
1.1279975000 -4.8770734375 -4.1290457920
-1.6981237500 -3.4915059375 -6.4405168303
-1.6460400000 -4.0820034375 -5.6888577424
-1.1149496875 -4.0651931250 -4.8724905920
-1.1080159375 -3.5136375000 -4.0286030320
0.0076190625 -4.1510318750 -4.8551090080
1.0824175000 -3.7398578125 -4.0551675840
-0.0087612500 -3.5751140625 -4.0904747360
0.5592821875 -4.2548500000 -5.6714489592
1.6586981250 -3.8365137500 -6.4312646986
1.1746659375 -3.1936637500 -4.8802099840
1.1573987500 -4.2871537500 -4.8859736240
-2.2237046875 -3.0189493750 -4.8643308320
-1.6678221875 -2.9092187500 -5.6769639208
-1.1192496875 -2.9567471875 -4.8484516800
-0.5678150000 -2.4073146875 -6.4723151301
-1.1659450000 -2.3826837500 -4.0695443040
-0.5538803125 -2.9591928125 -5.6457029736
0.0268078125 -2.9914831250 -4.8478170320
0.5782290625 -3.1212759375 -5.6406011808
1.1102196875 -2.6690100000 -3.9854081120
1.7349693750 -2.7008971875 -3.2654970960
1.7403846875 -3.2798250000 -5.6842105648
-1.6682656250 -5.7483636250 -3.2614819760
-1.6362171875 -6.2820473750 -2.3904081680
-0.5126675000 -5.7760771250 -3.2390102560
-0.5399590625 -6.3200163750 -2.4263111120
0.6262546875 -5.8856465000 -3.2051407760
0.5517706250 -6.4724124063 -2.4756582320
1.7271084375 -6.0567730625 -3.2318866560
1.6627293750 -6.6128497344 -2.4130094080
-1.6631459375 -5.2113312500 -2.3976871920
-0.4834543750 -4.6172459375 -3.2152692400
-0.5791025000 -5.2016696875 -2.4583284560
0.6002665625 -4.7596296875 -3.2256826480
0.5562587500 -5.3184415625 -2.4087611520
1.6324412500 -4.9873818750 -3.2185979040
1.7375762500 -5.5251022500 -2.3594528880
-1.6635625000 -3.4660821875 -3.2207997440
-1.6968068750 -4.0595628125 -2.4821989920
-0.5376881250 -3.4888453125 -3.2178207840
-0.5894225000 -4.0638628125 -2.4162344560
0.5120896875 -3.6914962500 -3.2251904720
0.6018790625 -4.2272225000 -2.3538705760
1.6205490625 -3.8567237500 -3.2321327440
1.7704981250 -4.4198759375 -2.4355588400
-1.6767178125 -2.9104415625 -2.4205604240
-0.0416965625 -2.4495353125 -4.0135787120
-0.5282953125 -2.9335137500 -2.3979332800
0.5364250000 -2.5493893750 -3.2353059840
0.6115675000 -3.1230093750 -2.4437186000
1.7412312500 -5.4909481563 -5.6687743712
-1.7118837500 -2.3401137500 -3.2351505600
-0.6299634375 -2.3939712500 -3.2290372160
1.6782228125 -3.2700559375 -2.4721870960
1.7227950000 -4.4429078125 -5.6547072040
1.6964843750 -6.0875556875 -6.4189286958
2.2037365625 -3.9569675000 -3.9682208080
2.2028900000 -5.0394521875 -4.0586905280
-0.4676787500 -5.7769895313 -6.4660075709
0.6083693750 -5.9165581250 -6.4194032570
-0.4920140625 -4.6317181250 -6.4529582625
-1.7072075000 -2.3402615625 -6.4533759645
0.5393543750 -2.5477768750 -6.4452300631
0.5796265625 -3.6439946875 -6.4413361738
2.2626196875 -6.1790207188 -4.0897364720
2.2867937500 -5.6077670625 -4.8580750160
2.3094359375 -4.4825081250 -4.8587096640
2.2768500000 -2.8197250000 -4.0766679040
6.6969140625 -5.8511672188 -4.8611057840
6.1929271875 -6.1056022500 -5.8107554904
6.6890262500 -4.2838346875 -4.0028933120
6.6866343750 -3.1620856250 -4.1055120080
3.3380900000 -6.3232346563 -4.0684822400
4.4633059375 -6.5362418750 -4.0076596480
5.6185546875 -6.5685053125 -4.0133455760
2.8262556250 -4.5436218750 -5.7257670568
3.4340203125 -5.7726760938 -4.8796660000
2.7573212500 -5.1498815625 -3.2478694240
4.0089437500 -5.8649339375 -5.6931953672
4.5371853125 -5.9778156563 -4.8219648400
5.0244559375 -4.9336453125 -5.6522126488
4.5124871875 -5.4022230313 -4.0829884800
5.0703718750 -6.0347315313 -5.6883539096
5.6485606250 -6.0398875000 -4.8744852000
5.6304334375 -5.4792521563 -4.0297687120
3.3509631250 -4.6885856250 -4.8246847600
3.3490146875 -5.2388109375 -3.9976866080
3.4160543750 -4.1192790625 -4.0332009920
3.9069128125 -4.7572243750 -5.6805568056
4.4569365625 -4.8130571875 -4.8407452400
4.5464034375 -4.2409959375 -4.0808514000
5.0697134375 -4.3428253125 -6.4335877694
5.6346259375 -4.9691337500 -4.9128749280
5.0360659375 -3.2280234375 -6.4395104599
5.5946090625 -4.4100396875 -4.0953446880
6.1792343750 -4.9151150000 -5.7260351632
2.2588840625 -3.4307550000 -4.8053085680
2.7123728125 -2.3735596875 -5.6180504536
2.8024981250 -3.4254740625 -5.6748307264
3.3420809375 -3.5444362500 -4.8019928560
3.9548175000 -3.1088328125 -6.4261009953
3.3859140625 -2.9454865625 -4.0683009120
4.4672296875 -3.6768225000 -4.9033034000
4.4838921875 -2.6207559375 -4.8509384640
5.0475818750 -2.6241421875 -5.6992271136
5.6504553125 -3.8420768750 -4.8947939360
6.1985843750 -3.7466034375 -5.7010157848
5.6186353125 -3.2918918750 -4.0802944640
6.1649368750 -4.3699556250 -6.4640738502
2.7821403125 -6.2701551875 -3.2098812080
3.8823221875 -6.4496909375 -3.2392304400
5.0513040625 -6.5426582813 -3.2552391120
6.2452259375 -6.5728308438 -3.2735273360
2.8901106250 -5.7093962188 -2.4331238640
3.9632696875 -5.3071675000 -3.2727890720
3.9691956250 -5.8782666250 -2.4656463360
5.0552009375 -5.4072029688 -3.2429476640
5.0470846875 -5.9856389688 -2.4438222160
6.1822846875 -5.4574189063 -3.2132228240
6.1338828125 -6.0412379688 -2.4469306960
2.8381075000 -3.9989731250 -3.2832931440
2.8210284375 -4.5712762500 -2.4856312720
3.9904940625 -4.2238362500 -3.2333631840
3.8633350000 -4.7704737500 -2.4196667360
5.0670125000 -4.3402318750 -3.1886399280
5.0429325000 -4.8909275000 -2.3657993680
6.1125843750 -4.2840093750 -3.2157096080
6.2124250000 -4.8768181250 -2.4532901280
2.8212300000 -2.9212856250 -3.2233383360
2.7405243750 -3.4750181250 -2.4019743040
6.1692100000 -3.1979906250 -3.2113188800
3.8985681250 -3.6602943750 -2.4194206480
4.4834890625 -3.1738031250 -3.9926612320
5.0222118750 -3.7433918750 -2.4237984240
5.0875046875 -3.1993881250 -3.2485558800
6.1917850000 -3.7512125000 -2.3736353280
3.3528175000 -2.4003675000 -4.9142478400
3.8568984375 -3.6831246875 -5.6477312568
3.9312078125 -2.5188728125 -5.6704879208
5.5595103125 -2.6978468750 -4.8255007360
6.1209425000 -2.6524818750 -5.6279509624
2.8080343750 -2.3622184375 -2.3900455120
3.9026396875 -3.0921568750 -3.2023172400
5.0144181250 -2.6451987500 -2.4265312960
6.1109046875 -2.6324465625 -2.4021038240
3.9478300000 -2.5000468750 -2.4780673040
2.7518790625 -5.1312706250 -6.4623936650
2.8595134375 -5.6919865938 -5.6561500568
6.2623318750 -5.5503808750 -6.4672512737
5.0535750000 -3.7920759375 -5.6323054248
-6.1821368750 -1.9315465625 -6.4513178917
-6.6829695656 -2.0459265625 -4.0854493600
-5.6455022500 -1.8418512500 -4.1018724960
-4.4803984375 -2.2341590625 -4.8307981040
-3.9272034375 -1.5914971875 -6.4565792531
-4.5492790625 -1.6788678125 -4.0072322320
-3.9498321875 -2.1839565625 -5.7296306384
-3.4404568750 -2.0250715625 -4.8707161680
-3.3439756250 -1.5078353125 -3.9856930560
-2.8334446875 -1.9893815625 -5.6225538640
-6.6964972313 -0.9124600000 -3.9994869360
-6.2135376250 -1.3675075000 -5.6331330576
-5.6239055000 -1.2741168750 -4.9132505360
-5.0595009375 -0.6221965625 -6.4438040479
-5.5370065313 -0.7351521875 -4.0799577120
-5.0033321875 -1.1708228125 -5.6116573464
-4.4246193750 -1.1396746875 -4.8608078880
-4.0094140625 -0.4092793750 -6.4593408786
-4.5117212500 -0.5452400000 -4.1035562560
-3.8925884375 -0.9928968750 -5.7103671288
-3.3542687500 -0.9467793750 -4.8182476160
-3.4463693750 -0.3764515625 -4.0264400480
-2.8269409375 -0.8845771875 -5.7015014848
-6.7177309336 -0.3493078125 -4.7962551200
-6.2032686875 -0.2457315625 -5.7334851536
-5.6887293438 -0.1469659375 -4.8374942880
-5.5831992813 0.3986234375 -4.0089548480
-5.1232081250 -0.0536828125 -5.6314855632
-4.5323209375 0.0203040625 -4.9059067520
-4.4113968750 0.5603840625 -4.0658529840
-3.9117771875 0.1135468750 -5.5808277008
-3.2928996875 0.1561303125 -4.8756249760
-3.3859275000 0.7408765625 -4.0924434400
-2.7594309375 0.2719078125 -5.7039494128
-6.2098880000 1.4482668750 -6.4491144974
-6.1203284063 0.8769312500 -5.6637567664
-5.5770166875 0.9757103125 -4.8062022560
-5.6821852813 1.5545171875 -4.0360633840
-5.0677918750 1.0733471875 -5.7271891864
-4.5504212500 1.1521984375 -4.8130797680
-4.4875740625 1.7112521875 -4.0058204640
-4.0013918750 1.2260643750 -5.6434817056
-3.4114184375 1.3016368750 -4.8971252960
-2.7556818750 1.9506009375 -6.4469456850
-2.8078462500 1.4020821875 -5.6023642864
-6.1567426875 -1.9118740625 -3.1801822720
-5.1174031250 -1.7281565625 -3.2128213120
-3.9629740625 -1.5572046875 -3.2856633600
-3.9523853125 -2.1208003125 -2.4789221360
-2.7700196875 -1.4157750000 -3.2221208480
-2.8516525000 -1.9794781250 -2.4090720000
-6.1040099063 -0.7958896875 -3.2778533040
-6.2340056250 -1.3385900000 -2.4058858080
-5.0222656250 -0.6178965625 -3.1755713600
-5.0379068750 -1.1879153125 -2.3776245440
-3.9978981250 -0.4527765625 -3.1938207280
-3.8600159375 -1.0359371875 -2.4218038160
-2.8700887500 -0.2823487500 -3.2753924240
-2.8140543750 -0.8278709375 -2.4537693520
-6.1791954063 0.3091968750 -3.2759752640
-6.1901456250 -0.2579193750 -2.4511789520
-4.9954040625 0.5009768750 -3.2805991280
-3.9099228125 0.6869250000 -3.1745352000
-3.9180928125 0.1075000000 -2.3927654320
-6.2103959375 1.4489790625 -3.1964370320
-6.1424115938 0.8639640625 -2.4580564640
-5.0778162500 1.5993178125 -3.2876061600
-5.0720112500 1.0464721875 -2.4417110400
-2.7843171875 1.9844903125 -3.1874612960
-3.9956271875 1.2691181250 -2.4097455040
-2.8639209375 0.8308943750 -3.1864510400
-2.8117431250 1.4047562500 -2.4103412960
-2.2780459375 -0.7046759375 -4.8392298560
-2.2511843750 -0.1861496875 -3.9730778080
-2.3136687500 0.9310575000 -4.0031523520
-2.2531193750 2.0316021875 -4.0877936720
-6.1503370313 1.9995537500 -5.6009654704
-5.5483195625 2.1083168750 -4.8886676400
-4.9740653125 2.1854884375 -5.6542823784
-3.3058265625 1.8367046875 -4.0482512160
-6.1496933750 2.0202206250 -2.3979332800
-3.8832090625 1.7986362500 -3.2796406800
-2.7422309375 0.2552721875 -2.4169727200
-2.2656700000 -1.8631631250 -4.8656260320
-6.6907359031 0.7874106250 -4.8823470640
-5.0106690625 2.1448265625 -2.4697780240
-5.1226840625 -0.0292400000 -2.4104837680
-2.8323831250 -0.2981109375 -6.4719649469
-3.9149484375 0.6540165625 -6.4435640474
-2.8862137500 0.8679953125 -6.4424936941
1.7082421875 -1.6360693750 -3.2336222240
-1.7151356250 1.0037812500 -3.2653157680
-1.6770134375 -1.2583950000 -6.4690253610
-2.2360537500 -1.2925396875 -4.0861228640
-1.6691525000 -1.8001412500 -5.6090669464
-1.1695596875 -1.2338043750 -4.0594806000
-0.5440440625 -1.8393250000 -5.6756713112
-0.6098340625 -1.2611631250 -3.2482709360
-1.0815171875 -1.8077200000 -4.8409783760
0.0169178125 -1.8995384375 -4.8588262320
-0.0231796875 -1.3625087500 -3.9897988400
0.5721956250 -1.9581259375 -5.6993838328
1.0751343750 -2.1042990625 -4.7958147520
1.1493496875 -1.5182090625 -4.0553359600
1.6247550000 -2.1728571875 -5.6702262904
-1.7198790625 -0.7068393750 -5.6290907384
-1.1209562500 -0.6724125000 -4.8759228720
-0.5206359375 -0.1517093750 -3.2303583200
-0.5509643750 -0.6698190625 -5.6683547264
-0.0255984375 -0.8211925000 -4.8210582000
0.5380106250 -0.8570840625 -5.6600201144
0.0180331250 -0.2165318750 -4.0870683600
1.0817456250 -0.9402890625 -4.8214597120
1.6743259375 -0.5363443750 -6.4249776683
1.1154737500 -0.3593725000 -4.0556209040
1.6144618750 -1.1108646875 -5.6425167816
-2.2183968750 0.3658896875 -4.8194392000
-1.6914318750 0.4266137500 -5.7278225392
-1.0949278125 -0.1401934375 -4.0276445840
-1.1805918750 0.4405887500 -4.8194910080
-0.6192134375 0.4344612500 -5.6267762160
-0.0427581250 0.3753631250 -4.8353960640
0.5574815625 0.7878675000 -6.4263804994
0.0212446875 0.9213556250 -4.0395733760
0.5063921875 0.2142340625 -5.6249292608
1.1179193750 0.1919815625 -4.8876962400
1.6702006250 0.0720115625 -5.7022527008
1.1369737500 0.7203037500 -4.0068825280
2.1983078125 -0.0539381250 -4.8603286640
-2.2087084375 1.4476621875 -4.8728921040
-1.6579993750 1.5428668750 -5.6642295144
-1.1247456250 0.9929775000 -4.0216348560
-0.5702471875 2.0768328125 -6.4567862261
-1.1087818750 1.5760575000 -4.8033916720
-0.5974581250 1.5032665625 -5.6772216656
-0.0324112500 1.5061959375 -4.8425326160
0.0169178125 2.0302181250 -3.9867292160
0.5120628125 1.3821946875 -5.6902656248
1.0577193750 1.2603971875 -4.8660534480
1.6571662500 1.2432509375 -5.6427278992
1.6539009375 0.6705715625 -6.4294427408
-1.7085646875 -1.2875543750 -3.1997009360
-0.5902018750 -0.7122009375 -2.4195760720
0.5887909375 -1.3911440625 -3.2607825680
0.5334418750 -1.9645490625 -2.4833258160
1.6757637500 -1.0660640625 -2.4311422080
-1.7072881250 -0.6989112500 -2.4319840880
-0.5958187500 0.4133375000 -2.4205086160
-0.5597121875 0.9603646875 -3.2420669280
0.5467853125 -0.3134700000 -3.2215768640
1.6540756250 -0.4962200000 -3.2217711440
-1.6375743750 1.5225493750 -2.4073364320
-1.6591550000 -0.1497340625 -3.2434398400
-0.5849075000 2.0983865625 -3.2720249040
-1.6974384375 0.4291937500 -2.4631595520
-0.5433721875 1.5380293750 -2.4487957840
0.5663234375 0.8082656250 -3.2280787680
1.7264365625 0.6618775000 -3.2414970400
1.6492246875 0.0831243750 -2.4605302960
-1.7243940625 2.1006978125 -3.1852465040
0.6140131250 1.9604640625 -3.2475585760
1.1584737500 1.8261562500 -4.0681195840
1.6183050000 1.1836556250 -2.3774820720
2.1736500000 -2.2336081250 -4.8166027120
2.2162737500 -1.0998996875 -4.8885510720
2.2351534375 -0.5743725000 -3.9852915440
1.6828184375 1.7571681250 -3.1795087680
2.2007534375 1.6815956250 -4.1028698000
1.7142621875 1.7858706250 -6.4691232781
-1.6654706250 -1.8286287500 -2.3465526960
-0.5316412500 -1.8169515625 -2.4425011120
1.6150800000 -2.1739859375 -2.3902527440
0.5205418750 -0.8682237500 -2.3889834480
0.5644959375 0.2536193750 -2.4155220960
0.5124928125 1.3952425000 -2.4574865760
-1.1799065625 2.1448668750 -4.0238755520
-0.6024568750 -1.2501578125 -6.4241879849
2.2135862500 1.0861665625 -4.8564171600
-1.7132140625 2.1242268750 -6.4621282785
0.6008578125 1.9547128125 -6.4585474390
6.7039418750 1.3488025000 -4.0749064320
6.6921571875 1.9339115625 -4.8773475920
2.2564115625 0.5251375000 -4.0657105120
6.6606328125 -1.4513171875 -4.8536195280
6.6655509375 0.2480831250 -4.0332009920
2.8093915625 -1.8077871875 -6.4208511611
2.2744178125 -1.6447365625 -4.0691557440
3.3334943750 -1.8849990625 -4.0185263760
3.8701343750 -1.9372843750 -6.4328189386
4.4505940625 -2.0655721875 -4.0380450400
5.6256362500 -2.1268471875 -4.0483030240
2.7668753125 -0.6533715625 -6.4297899839
2.8345196875 -0.6354325000 -3.2374819200
2.7850428125 -1.2274081250 -5.6632335056
3.3550212500 -1.3357278125 -4.8735526560
3.3666715625 -0.7893859375 -4.0591049920
3.9517806250 -1.3628581250 -5.6568701880
4.4911484375 -1.5032800000 -4.8174704960
4.4511315625 -0.9000706250 -4.0931946560
5.0347625000 -1.5490884375 -5.6468699488
5.6175200000 -1.5543156250 -4.8314457040
5.5321784375 -0.9797818750 -4.0212722000
6.1181475000 -1.5453796875 -5.7205422200
2.7888725000 -0.0583590625 -5.6683793352
3.3161734375 -0.2012937500 -4.8217446560
3.9129328125 0.2589943750 -6.4410698807
3.3328762500 0.3879137500 -4.0900343680
3.8825640625 -0.2852243750 -5.6162669632
4.4926400000 -0.3218550000 -4.8872299680
4.4233562500 0.1914171875 -4.0234999440
6.1997131250 -0.3953984375 -5.6849397624
5.6443815625 -0.4441093750 -4.8663383920
5.5682043750 0.1151459375 -4.0509840880
2.7943281250 1.0112659375 -5.6079388272
3.4086503125 0.9565215625 -4.8782930880
3.2747993750 1.4831237500 -4.0113639200
3.9484481250 0.8448559375 -5.6792408824
4.5023150000 0.7585737500 -4.8386470160
5.0541125000 0.7143643750 -5.6835707360
4.4528246875 1.3143621875 -4.0122187520
5.0720515625 -0.4506400000 -5.6377504456
5.5801100000 0.6977421875 -4.8299691760
6.1445925000 1.2910346875 -3.2136761440
6.1566190625 0.6967209375 -5.6203364816
2.7842365625 -1.8131084375 -3.1916318400
3.9173134375 -1.9030725000 -3.2304878400
5.0474878125 -2.0889265625 -3.2767782880
6.1951981250 -2.0964918750 -3.2625699440
2.7373934375 -0.0955540625 -2.3854734560
2.7809712500 -1.1991759375 -2.4611649440
3.9222450000 -0.8197412500 -3.2118110560
3.8794062500 -1.3751131250 -2.3828701040
4.9757987500 -0.9878175000 -3.2014106000
5.0654403125 -1.5634531250 -2.4225938880
6.1349981250 -0.9699053125 -3.3014907040
6.1396340625 -1.5349253125 -2.4657888080
2.7219537500 1.5782612500 -3.2084435360
2.8007378125 0.4609196875 -3.1980171760
3.8503812500 0.2630256250 -3.2120960000
3.9489990625 -0.2705237500 -2.3679882560
5.0064496875 0.1670415625 -3.2553038720
5.0943981250 -0.3955059375 -2.4604525840
6.1288437500 0.1786650000 -3.2175876480
6.1806856250 -0.4356168750 -2.4652577760
3.8825909375 1.4043396875 -3.2618705360
3.9669784375 0.8466028125 -2.4499485120
5.6243193750 1.2814940625 -4.0623818480
5.0249396875 1.7819603125 -2.4111831760
6.1330900000 0.7293606250 -2.4099915920
2.8563153125 2.1391559375 -5.6643357208
3.3916518750 2.0400812500 -4.8192837760
3.9538365625 1.9874600000 -5.6933210016
4.4606721875 1.8738862500 -4.8065001520
5.0087206250 1.7895793750 -5.6649625976
5.5623590625 1.8619806250 -4.8381289360
6.1122618750 1.8226625000 -5.6472235384
3.9032981250 1.9484912500 -2.4408562080
5.0545290625 1.2587712500 -3.2708333200
6.1511096875 1.8570490625 -2.3826758240
2.8328265625 1.0273909375 -2.3885948880
5.0117709375 0.7089759375 -2.4065463600
2.8668503125 2.1613950000 -2.4409209680
2.7654643750 1.5616256250 -6.4352373361
5.0020153125 0.1206553125 -6.4259039954
3.8630931250 1.4086531250 -6.4649514648
6.1843003125 1.2586637500 -6.4434773985
-3.9137659375 2.3464025000 -5.7323492632
-6.1738472813 6.5771859375 -5.6636104088
-5.5739408438 6.5103612500 -4.9073962320
-6.1213684688 6.5072975000 -2.3903045520
-5.0242812500 6.6941056250 -2.4709566560
-3.9469162500 2.8830693750 -3.2709757920
-5.0970184375 2.7532765625 -6.4353523498
-5.6092626563 2.6486118750 -4.0781444320
-4.4312978125 2.2783012500 -4.8134553760
-4.5616281250 2.8524050000 -4.0228134880
-3.4058150000 2.4306421875 -4.7980424960
-2.8656275000 2.5204987500 -5.6573429360
-6.1825453750 3.1173656250 -5.6675672448
-5.6336476875 3.2494293750 -4.8550572000
-4.9698459375 3.8608221875 -6.4525669826
-5.5839947813 3.7992650000 -4.0473575280
-5.0507531250 3.3162675000 -5.6170984816
-4.4565200000 3.3851615625 -4.8964776960
-4.4566275000 3.9315437500 -4.0629517360
-3.8574359375 3.4516906250 -5.6339477384
-3.3062700000 3.5787690625 -4.8325984320
-3.4012596875 4.1436412500 -4.0491319520
-2.7655181250 3.6269021875 -5.7034080192
-6.7017647313 4.2077112500 -4.8999229280
-6.1276652813 4.2365212500 -5.7092869320
-5.6152960938 4.3739868750 -4.8211229600
-5.5881227813 4.9525653125 -4.0225803520
-5.0721456250 4.4496803125 -5.6944620728
-4.5293512500 4.5062387500 -4.8368725920
-3.9392971875 5.7243481250 -5.6938675760
-4.4529456250 5.0948146875 -4.0716425280
-3.9567256250 4.5914996875 -5.6165713352
-3.3564993750 4.7018618750 -4.9049224000
-3.3233221875 5.2296600000 -4.0579004560
-2.7490168750 4.7319215625 -5.6327185936
-6.7062942841 5.2747562500 -4.9032127360
-6.6677685281 5.7824518750 -4.0350013200
-6.1537326875 5.4110931250 -5.6865885520
-5.5782784688 5.4622362500 -4.8948975520
-5.5480373750 6.0056353125 -4.0100298640
-4.9929987500 5.5540950000 -5.6728244616
-4.4643943750 5.6730840625 -4.8305002080
-4.4438081250 6.2498215625 -4.0331103280
-3.3843821875 5.8170803125 -4.8388542480
-2.7466518750 6.4853271875 -6.4441272003
-3.3243300000 6.3985612500 -4.0769917040
-2.8491396875 5.9020053125 -5.6611534144
-6.1575610313 2.5789384375 -3.2162794960
-5.0871284375 2.7512340625 -3.1736933200
-3.9546025000 2.3388237500 -2.4207417520
-3.3791684375 3.0102418750 -4.0274891600
-2.7800440625 3.0778325000 -3.2930848560
-6.1374692813 3.6258809375 -3.2472606800
-6.1326344688 3.1180912500 -2.3277722960
-5.0258668750 3.8851171875 -3.2454344480
-4.9971509375 3.3376734375 -2.4174908000
-3.9295684375 4.0456012500 -3.1908806240
-3.8897128125 3.4514890625 -2.4650764480
-2.8054678125 4.1694815625 -3.2570394400
-2.8095528125 3.6140559375 -2.4282021040
-6.1270861250 4.7790334375 -3.1991180960
-6.1362639375 4.1938034375 -2.4538600160
-4.9877850000 4.9379721875 -3.2404997360
-5.0154796875 4.4129018750 -2.3535985840
-3.8970900000 5.1606584375 -3.2515866480
-3.8850768750 4.6279959375 -2.4100434000
-2.7985878125 5.3261143750 -3.1945848960
-2.7667812500 4.7319215625 -2.4559064320
-6.1294430625 5.9964440625 -3.2420021680
-6.1724054375 5.3882225000 -2.4942832080
-4.9778278125 6.0894987500 -3.2061121760
-5.0628737500 5.5064590625 -2.4520855920
-3.8602578125 6.2174103125 -3.2299827120
-3.9219628125 5.6925550000 -2.3591420400
-2.7910090625 6.4387931250 -3.2162147360
-2.7619034375 5.8892262500 -2.3930762800
-2.2943590625 2.6024271875 -4.8794199120
-2.2576478125 4.3130881250 -4.0298723280
-2.8640821875 2.5533131250 -2.4079451760
-2.2502437500 3.7269578125 -4.7922788560
-2.2537106250 5.4334531250 -4.0504919120
-2.2472203125 5.9720415625 -4.9216045760
-6.7144145922 6.3563809375 -4.7971876640
-6.7030438469 2.4863003125 -4.0681584400
-6.7014318844 4.7241278125 -4.0050433440
-6.1439663125 2.5360728125 -6.4554265251
-3.9234543750 4.0288043750 -6.4224696430
-6.1617804063 4.8419881250 -6.4670103924
-2.7507100000 5.3258321875 -6.4121216426
-6.1343773125 5.9674862500 -6.4483819323
-5.0812831250 6.1181609375 -6.4449688213
-3.8369437500 5.1395078125 -6.4504815810
-2.1942765625 4.8639315625 -4.8472989520
1.0971315625 2.3925603125 -4.8643437840
-2.1888075000 3.1292846875 -4.0379673280
-1.6919425000 2.6491225000 -5.6034172840
-1.0953578125 2.6813993750 -4.8715969040
-0.5173840625 4.3474881250 -6.4374968125
-1.0890421875 3.2331834375 -4.0301443200
-0.5473362500 2.6574671875 -5.6998643520
-0.0199143750 2.5723943750 -4.8370668720
0.0036012500 3.1662243750 -4.0659436480
0.5416118750 2.5231728125 -5.6704671976
1.6903434375 2.3291621875 -5.5994824664
1.2112293750 3.5293056250 -4.8703017040
-1.7184412500 3.7783562500 -5.6844734904
-1.1696403125 3.7814200000 -4.8554457600
-1.0657012500 4.3478375000 -4.0494168960
-0.5861840625 3.8018853125 -5.6199012944
-0.0180062500 4.2459409375 -4.0686765200
0.0145662500 3.7066268750 -4.9071630960
0.6138384375 3.6276950000 -5.6110680304
1.0662790625 4.0644675000 -4.0165447200
1.7548031250 3.4525775000 -5.6858140224
-1.6901284375 5.4789256250 -6.4481750889
-1.6299284375 4.8771003125 -5.6670621168
-1.0895528125 4.9083021875 -4.8305520160
-0.5941793750 5.4501693750 -6.4759718820
-1.1640771875 5.4959643750 -4.0563721200
-0.5174512500 4.9336318750 -5.6280519880
0.0739465625 4.8311440625 -4.8689806000
-0.0298715625 5.3441743750 -4.0076596480
0.6294393750 4.7673696875 -5.6751363936
1.1517953125 4.6372946875 -4.7948304000
1.1784150000 5.2093425000 -4.0104184240
1.6800637500 4.5750790625 -5.7005922544
-1.6800771875 6.5654684375 -6.4154123573
-2.2265937500 6.4905409375 -4.0429020400
-1.6236128125 6.0049634375 -5.6017283432
-1.0426693750 6.0549643750 -4.8527646960
-1.1444315625 6.6046118750 -4.0413348480
-0.4818150000 6.0280490625 -5.6760624616
0.0338221875 5.9351018750 -4.7760111440
0.0458218750 6.5264862500 -4.0261810080
0.5572128125 5.8862700000 -5.7096599496
1.0783056250 5.7782056250 -4.8061245440
1.7432334375 6.2136343750 -6.4367054453
1.2121834375 6.3467328125 -4.0253909360
1.6186946875 5.6610843750 -5.6456110144
-1.6507834375 3.2519690625 -3.2117333440
-1.6925740625 2.6889781250 -2.4244848800
-0.5260646875 3.2149621875 -3.2029389360
-0.5844775000 2.6201243750 -2.4193558880
1.0674346875 2.9733425000 -4.0810715840
0.5120090625 2.4761012500 -2.3772748400
1.6023815625 2.8848162500 -3.2039362400
-1.6396168750 4.3416025000 -3.2897432400
-1.7381809375 3.8055537500 -2.4116364960
-0.5444337500 4.3361871875 -3.1643549280
-0.6014893750 3.7534565625 -2.3858879200
0.5148309375 4.1816693750 -3.2003614880
0.6194687500 3.6191487500 -2.3943326240
1.6622321875 3.9939475000 -3.2821274640
1.7585521875 3.4552784375 -2.4346133440
-1.6917543750 5.4310343750 -3.2024597120
-1.6642075000 4.8592284375 -2.4089424800
-0.5916396875 5.4654343750 -3.2485040720
-0.5154221875 4.9248437500 -2.4164416880
0.5767240625 5.2966862500 -3.2891085920
0.6168081250 4.7612690625 -2.4323856000
1.7498984375 5.1000821875 -3.2466001280
1.6739228125 4.5409209375 -2.4381362880
-1.6914184375 6.6025156250 -3.2035606320
-1.6110218750 6.0218812500 -2.4518913120
-0.5565543750 6.5631034375 -3.2753924240
-0.5005334375 6.0303065625 -2.4268550960
0.6128575000 6.3869109375 -3.2520011120
0.5543775000 5.8348312500 -2.4332922400
1.7604334375 6.2469862500 -3.1906215840
1.6438900000 5.6680718750 -2.4523964400
2.2020300000 4.4793771875 -4.8121083680
0.5420150000 3.0539003125 -3.1772680720
1.7282237500 2.3230481250 -2.3939311120
2.1599975000 2.7800171875 -4.0004842400
2.2082381250 5.5961275000 -4.8828780960
-1.6418609375 3.1921721875 -6.4509363258
0.5775571875 3.1026515625 -6.4645854154
1.6426806250 2.8667562500 -6.4455762701
-0.5484112500 3.2551671875 -6.4486447284
0.5145218750 4.1938437500 -6.4436576903
2.2701043750 6.6861103125 -4.8874631040
2.3017496875 2.2538987500 -4.8749255680
6.7013350000 3.0770531250 -4.8228973840
2.2745118750 3.3425646875 -4.7876679440
2.8706665625 6.6568971875 -5.6609215736
3.4276375000 6.5360806250 -4.8563394480
3.9933428125 6.4491131250 -5.6584140664
4.5698115625 6.3646718750 -4.8499800160
5.0888081250 6.2753662500 -5.6554221544
5.6759462500 6.3082075000 -4.8453172960
6.2124115625 6.4191206250 -5.7596909352
2.8381881250 6.6265821875 -2.3535985840
4.0046303125 6.4279356250 -2.4191357040