ITEM: TIMESTEP
54000
# source: voids-relax.54000.cfg
ITEM: NUMBER OF ATOMS
2298
ITEM: BOX BOUNDS pp pp pp
-6.7187500000 6.7187500000
-6.7187500000 6.7187500000
-6.4760000000 6.4760000000
ITEM: ATOMS x y z
-6.1443694375 -6.5306989063 -6.4376319018
-6.6759510250 -6.5852309688 -4.0248340000
-5.5983796250 -6.5171767500 -4.0822631680
-4.5388784375 -6.2951113125 -4.0883894640
-3.4266565625 -6.1357358438 -4.0561648880
-2.8084912500 -6.5898505125 -5.7056331728
-6.6881094094 -5.4792414063 -4.0917310800
-6.1981973750 -5.9455401250 -5.6597779120
-5.6047799063 -5.9561235000 -4.8993789440
-5.0297368750 -5.2711818750 -6.4409476138
-5.5971017188 -5.4062018750 -4.0853716480
-5.0279093750 -5.8480913750 -5.6740199312
-4.4578368750 -5.7266795313 -4.9031350240
-3.9321081250 -5.1354228125 -6.4466371684
-4.4717581250 -5.2037928125 -4.0215830480
-3.8622600000 -5.7048261250 -5.6545582560
-3.3103550000 -5.5721563438 -4.8447474080
-3.3754462500 -4.9837806250 -4.0855659280
-2.7612987500 -5.4836851875 -5.6601535200
-6.1632760000 -4.8650468750 -5.6342313872
-5.5849488438 -4.8175453125 -4.8409783760
-5.5959917813 -4.2490853125 -4.0690650800
-5.0638278125 -4.6825387500 -5.6851107288
-4.4780200000 -4.6689803125 -4.8865176080
-3.9037550000 -3.9526003125 -6.4417856082
-4.4690840625 -4.1145893750 -4.0499997360
-3.9227556250 -4.5526250000 -5.7012009984
-3.3784159375 -4.4225768750 -4.8861808560
-2.8067309375 -3.8624615625 -6.4557507137
-3.3292750000 -3.8866759375 -3.9957567600
-2.7686221875 -4.4165568750 -5.6367194664
-6.1346433750 -3.7897109375 -5.7008435232
-5.6129552813 -3.6551478125 -4.8297748960
-5.5729451250 -3.1101228125 -3.9912883200
-5.0421934375 -3.6107100000 -5.6458143608
-4.4821184375 -3.5488168750 -4.8265109920
-4.4314859375 -2.9532534375 -4.0906042560
-3.9426296875 -3.3840596875 -5.6658226104
-3.3573862500 -3.3719525000 -4.8757415440
-2.7710409375 -2.6748821875 -6.4340260650
-3.3349590625 -2.8028878125 -4.0408167680
-2.8110175000 -3.2767478125 -5.7125560168
-6.1187118750 -6.5475562500 -3.2154635200
-5.0530509375 -6.4211174375 -3.2014494560
-3.9815312500 -6.2515563438 -3.2336092720
-2.8596881250 -6.0472606563 -3.2757939360
-2.7967468750 -6.6090963719 -2.4698945920
-6.1405451250 -5.4384518750 -3.2377668640
-6.1963416563 -5.9915460938 -2.4122711440
-5.0618390625 -5.2935956250 -3.2505763920
-5.0311209375 -5.8480268750 -2.4203661440
-3.9038356250 -5.1237321875 -3.2198672000
-3.9021962500 -5.6876409063 -2.4218556240
-2.8199937500 -4.9569056250 -3.2273146000
-2.7552787500 -5.5012654688 -2.4138642400
-6.1687490938 -4.3557925000 -3.2644609360
-6.1655012500 -4.8738753125 -2.4077768000
-5.0506590625 -4.1714165625 -3.2475456240
-5.0229240625 -4.7398765625 -2.4479280000
-3.9332368750 -3.9738987500 -3.2466001280
-3.9265853125 -4.5469140625 -2.4562561360
-2.7755021875 -3.8560653125 -3.2226130240
-2.8230978125 -4.3900581250 -2.3945916640
-6.1739413438 -3.2179856250 -3.2833320000
-6.1560842500 -3.7771200000 -2.4652189200
-4.9654250000 -3.0643681250 -3.2553168240
-5.0879212500 -3.6191353125 -2.4289533200
-3.8838003125 -2.8399215625 -3.2167587200
-3.9216806250 -3.4297606250 -2.4342895440
-2.7590278125 -2.6974840625 -3.2513276080
-2.8280159375 -3.2799190625 -2.4307406960
-2.2525415625 -6.0037433125 -4.0051728640
-2.2905696875 -3.1220687500 -4.8608337920
-6.6843732469 -2.6639037500 -4.8320285440
-6.1514550313 -2.6271253125 -5.6926487928
-5.5951116250 -2.5783203125 -4.8513011200
-5.0232465625 -2.5215065625 -5.6770001864
-4.4954350000 -2.3642206250 -4.8344376160
-3.8988234375 -2.3339593750 -5.6110913440
-6.1463272813 -2.6790612500 -2.4592480480
-5.0626050000 -2.5216543750 -2.4326316880
-3.9246637500 -2.2898306250 -2.3988528720
-2.2714078125 -6.5457677188 -4.8500059200
-2.2838643750 -4.8696156250 -4.0723160320
-6.6802729281 -3.7493581250 -4.8482833040
-5.0767143750 -6.4262572813 -6.4517545036
-6.1716139688 -3.2025056250 -6.4542469865
-2.1945453125 -5.4419241250 -4.8306815360
-2.2125381250 -4.2850575000 -4.8458094720
-2.2383112500 -3.7174709375 -4.1039707200
-2.1438590625 -2.6070631250 -3.8850819200
-1.7084840625 -6.4383295313 -5.6719165264
-1.1522253125 -6.3091481250 -4.8590334640
-1.0978168750 -5.7736825625 -4.0009375600
-0.5804596875 -6.2994771563 -5.6465072928
-0.0093793750 -6.2666385938 -4.8626600240
0.0410784375 -5.7052668750 -4.0472927680
0.5549553125 -6.3174659375 -5.6933663336
1.0896468750 -6.4041687188 -4.8436335360
1.1408303125 -5.8160335313 -4.0853068880
1.6323606250 -6.4929690938 -5.6840888160
-1.6784915625 -5.2907468750 -5.7239926328
-1.1494706250 -5.2105921875 -4.8329869920
-1.1186046875 -4.6618718750 -3.9797351360
-0.6066762500 -5.1824003125 -5.7112025328
-0.0764056250 -5.1459712500 -4.8567539120
0.0384581250 -4.6062271875 -4.0487563440
0.4951315625 -5.2215437500 -5.6552498928
1.0908428125 -5.2631462500 -4.9089504720
1.1065512500 -4.7132703125 -4.0777040640
1.6689106250 -5.3520621875 -5.6620147224
-1.6657528125 -4.1830400000 -5.6730653688
-1.0955996875 -4.1323403125 -4.8512622640
-1.1433834375 -3.5612600000 -4.0996965600
-0.5710937500 -4.0482484375 -5.6938623952
0.0129268750 -4.0549806250 -4.9055700000
0.5290209375 -3.4884825000 -6.4261478815
-0.0691090625 -3.5322753125 -4.0421508240
0.5879309375 -4.0789800000 -5.6748605160
1.1505859375 -4.1565815625 -4.8862974240
1.0643306250 -3.6086809375 -4.0398065120
1.7396725000 -4.1850690625 -5.6618333944
-1.6612646875 -2.5499940625 -6.4205703618
-1.6827512500 -3.1300640625 -5.6146816384
-1.1127325000 -2.9550271875 -4.8701721840
-1.2270050000 -2.4533650000 -3.9745413840
-0.5358875000 -2.9336212500 -5.6391376048
0.5825559375 -2.8960096875 -5.6859668560
0.0321290625 -2.9656428125 -4.8432838320
1.1122487500 -3.0367540625 -4.8173668800
1.0985559375 -2.4668696875 -3.9958344720
1.6864331250 -2.5711850000 -3.2784620480
1.6655915625 -3.1000715625 -5.6734811280
-1.6811118750 -5.8510073125 -3.2512498960
-1.7295406250 -6.4188451563 -2.4544428560
-0.5115925000 -5.7558644375 -3.2393988160
-0.5838190625 -6.3057014063 -2.4276969760
0.6035453125 -5.7678695000 -3.2281435280
0.5220065625 -6.3503340625 -2.4348464800
1.6712218750 -5.9174759063 -3.2117074400
1.6486200000 -6.4825389063 -2.4083984960
-1.7300781250 -4.6701359375 -3.2726854560
-1.6669218750 -5.2672446875 -2.4809296960
-0.5342884375 -4.5867428125 -3.2317182800
-0.6183803125 -5.1737331250 -2.4665141200
0.5685809375 -4.6515250000 -3.1932119840
0.5342346875 -5.2175125000 -2.4075307120
1.6433390625 -4.7822987500 -3.2168882400
1.7251734375 -5.3482996875 -2.4138383360
-1.6869034375 -3.5465593750 -3.2196081600
-1.6656184375 -4.1640393750 -2.4232803440
-0.6178428125 -3.4304862500 -3.2096480720
-0.5390990625 -4.0165493750 -2.4480963760
0.4975368750 -3.5141884375 -3.2448257040
0.6029809375 -4.0617934375 -2.4257800800
1.6457040625 -3.6800071875 -3.2694604080
1.7311665625 -4.2234868750 -2.4183974400
-1.7048425000 -2.9834475000 -2.5316885840
-0.0953659375 -2.4016978125 -4.0518130160
-0.5361159375 -2.8815643750 -2.3736741840
0.4585815625 -2.4142753125 -3.2858058320
0.5794787500 -2.9601065625 -2.4355458880
2.2190687500 -3.7623925000 -4.0579393120
2.1971925000 -3.1756440625 -4.8043760240
-0.6845465625 -2.3443868750 -3.2304230800
1.6523018750 -3.1196096875 -2.4565540320
2.2050937500 -6.5489873438 -4.8764280000
2.2268625000 -5.9963956875 -4.0534061120
2.1829756250 -4.9147118750 -4.0616694880
1.7077181250 -5.9199766250 -6.4646641376
0.5848537500 -4.6533256250 -6.4598474313
1.6625009375 -4.7654078125 -6.4198953035
-0.5951468750 -2.3932859375 -6.4750980007
6.6951403125 -4.8917606250 -4.8600048640
6.7018859375 -4.3347896875 -4.0647261600
2.2919403125 -2.6163618750 -4.0203008000
6.6693940625 -6.0470255000 -4.8736174160
6.6671096875 -3.2140887500 -4.0110789760
2.7818715625 -6.0657600625 -6.4047940486
3.3081915625 -6.2031813438 -4.0591827040
4.4237459375 -6.3405193125 -4.0832604720
5.5890325000 -6.4595218125 -4.0129958720
2.2528506250 -5.4668977188 -4.9165662480
2.8649825000 -5.4795880938 -5.6480576472
3.3979943750 -5.6411511875 -4.8459130880
3.3082721875 -5.0606834375 -4.0733651440
3.9760621875 -5.6727978438 -5.6552408264
4.5125946875 -5.7453052500 -4.7974855600
4.4816750000 -5.1742437500 -4.0109624080
5.0211906250 -5.9005030000 -5.7039649552
5.5810237500 -5.9117058438 -4.8450971120
5.6461418750 -5.3583912500 -4.0046418320
6.1075184375 -5.9954926875 -5.6969255432
2.2756943750 -4.3533334375 -4.8353701600
2.8402843750 -4.3939281250 -5.6611508240
3.3790071875 -4.4647303125 -4.7948044960
3.3881581250 -3.8840153125 -4.0169721360
3.8931125000 -4.6007715625 -5.6950695216
4.4489815625 -4.6266118750 -4.8521948080
5.0785418750 -4.1474306250 -6.4329321391
4.5419018750 -4.0772465625 -4.0277352480
4.9928106250 -4.7470521875 -5.7014419056
5.5464893750 -4.8413431250 -4.8852224080
6.1499271875 -4.3073234375 -6.4683252794
5.6140934375 -4.2664062500 -4.0829237200
6.1355356250 -4.8640390625 -5.6527903080
2.8447725000 -2.7659750000 -6.4699758564
2.7356465625 -3.3200568750 -5.6772721784
3.2948884375 -3.3426453125 -4.8554069040
3.9489453125 -2.8653721875 -6.4219604999
3.4138909375 -2.7855668750 -4.0531470720
3.8484328125 -3.4526581250 -5.6806591264
4.4187740625 -3.5463981250 -4.8996120800
5.0150900000 -3.0429218750 -6.4608513408
4.4794175000 -2.9802359375 -4.0978444240
5.0293606250 -3.5877990625 -5.6251002272
5.6125481250 -3.7165975000 -4.8839531120
5.5375400000 -3.1335309375 -4.0880138560
6.1971062500 -3.7497343750 -5.6484941296
2.7765100000 -6.0683535000 -3.2099589200
3.8837331250 -6.2126520938 -3.2408753440
4.9791312500 -6.4325393125 -3.2760400240
6.1728112500 -6.5579515000 -3.2716363440
2.7588128125 -4.9456987500 -3.2606400960
2.8467746875 -5.4970313125 -2.4263888240
3.8758184375 -5.1367665625 -3.2811949200
3.9689537500 -5.6710724688 -2.4159106560
5.0565850000 -5.3116153125 -3.2542806640
5.0591112500 -5.8818960938 -2.4548055120
6.2247203125 -5.4117623125 -3.2245040160
6.1132562500 -6.0008475313 -2.4623047200
2.7822075000 -3.8640875000 -3.2819979440
2.8360784375 -4.4032268750 -2.4314271520
3.9563493750 -4.0062159375 -3.2553297760
3.9090493750 -4.5638318750 -2.4680165520
5.0919525000 -4.1617281250 -3.2026669440
4.9755837500 -4.7478315625 -2.4448065680
6.1552618750 -4.3108978125 -3.2164349200
6.1101925000 -4.8671968750 -2.3984902160
2.8528081250 -2.7262403125 -3.2340366880
2.7449990625 -3.2897553125 -2.4717596800
3.9577334375 -2.8790784375 -3.1941704320
3.8311790625 -3.4452137500 -2.4228270240
5.0062212500 -3.0480415625 -3.1977322320
5.0069334375 -3.6117581250 -2.3809014000
6.0809256250 -3.1931396875 -3.2490351040
6.2153812500 -3.7398309375 -2.4185269600
3.3004112500 -2.2424768750 -4.8992623760
3.9071143750 -2.3056331250 -5.6279367152
4.5025434375 -2.4118565625 -4.8989903840
5.1025815625 -2.4907615625 -5.6379045744
5.6665400000 -2.5651918750 -4.8379217040
6.2020378125 -2.6501034375 -5.6818740240
5.1036296875 -2.4806162500 -2.4117401120
6.1948756250 -2.6297187500 -2.4595329920
3.9177031250 -2.3226584375 -2.3663433520
2.7577109375 -6.6631424000 -5.6744110816
2.8162715625 -6.6396959781 -2.4375923040
6.2112828125 -5.4129340625 -6.4686035014
3.9678787500 -4.0274606250 -6.4620348946
-3.3279984375 -2.2391578125 -4.8167063280
-5.0448540625 -1.9316003125 -6.4220974026
-5.6144750625 -2.0069846875 -4.0350919840
-4.4767837500 -1.8147746875 -4.0182802880
-3.3331853125 -1.6546668750 -4.0792712560
-2.8225065625 -2.0925815625 -5.6978166408
-6.6667788563 -0.9668281250 -4.0609053200
-6.1873116563 -1.5170131250 -5.6191954104
-5.5834169688 -1.4749671875 -4.8821139280
-5.5970614063 -0.9043840625 -4.0943603360
-5.0262968750 -1.3460343750 -5.6643551488
-4.4550821875 -1.2710934375 -4.8641495040
-4.5043978125 -0.7213115625 -4.0281367600
-3.9072756250 -1.2395556250 -5.7031010568
-3.3881984375 -1.0665478125 -4.8518580560
-3.3479934375 -0.5233637500 -4.0227098720
-2.7962228125 -1.0340962500 -5.6207859160
-6.1392497500 -0.4060678125 -5.6575825480
-5.6021864688 -0.3087668750 -4.8498245920
-5.5621897500 0.2327912500 -4.0248728560
-5.0205725000 -0.2500046875 -5.6521880400
-4.4543700000 -0.1734512500 -4.8546556880
-4.4584550000 0.4030309375 -4.0810327280
-3.9192215625 -0.0503368750 -5.6977143200
-3.3504525000 0.0173075000 -4.8787464080
-3.3792221875 0.5612709375 -4.0204432720
-2.7763353125 0.0570959375 -5.6768305152
-6.6590376469 0.6990053125 -4.8368984960
-6.1490792813 1.3181918750 -6.4749743635
-6.1390347500 0.7362540625 -5.7028731016
-5.5851786250 0.7878271875 -4.8642790240
-5.5962363438 1.3300571875 -4.0011577440
-5.0188928125 0.8334743750 -5.7063157432
-4.4926265625 0.9780618750 -4.8592795520
-4.4532950000 1.5249681250 -4.0369829760
-3.9058512500 1.0424409375 -5.6444129544
-3.3283746875 1.1027887500 -4.8470787680
-2.7974321875 1.2216703125 -5.6878436008
-6.1588308750 -2.0658006250 -3.1970198720
-5.0429056250 -1.9616734375 -3.2415099920
-3.8819593750 -1.7595196875 -3.2516384560
-2.8196040625 -1.5552696875 -3.2064230240
-2.7774371875 -2.1358503125 -2.4257541760
-6.1199293125 -0.9536190625 -3.2018380160
-6.1672145313 -1.5093806250 -2.4006532000
-5.0692162500 -0.8149575000 -3.2097257840
-4.9865084375 -1.3949871875 -2.4466457520
-3.9272437500 -0.6451612500 -3.2561975600
-3.9323903125 -1.1915300000 -2.4225420800
-2.7743196875 -0.4711456250 -3.2173286080
-2.8020412500 -1.0018596875 -2.3839192160
-6.1487970938 0.1522200000 -3.2666109680
-6.1970363750 -0.3645996875 -2.4119214400
-4.9961162500 0.2885165625 -3.2153599040
-5.0269553125 -0.2529475000 -2.3973633920
-3.9354809375 0.4821375000 -3.1921887760
-3.8428696875 -0.1041540625 -2.4258577920
-6.1931421875 1.2747081250 -3.2450847440
-6.1128060938 0.7166218750 -2.4409080160
-5.0112871875 1.4287690625 -3.2516384560
-5.0664481250 0.8740153125 -2.4455577840
-2.8304481250 1.7702965625 -3.2352023680
-3.8865684375 1.0294468750 -2.3827923920
-2.7991118750 0.6547421875 -3.2518974960
-2.7222762500 1.2190903125 -2.4107169040
-2.2579300000 -1.5417650000 -4.0527326080
-2.2434175000 -0.4071696875 -4.0745955840
-2.2475831250 0.1858137500 -4.8177165840
-6.1795058125 1.8673287500 -5.6522515048
-5.5883888438 1.8456540625 -4.8780470000
-5.0352193750 2.0269528125 -5.6701563496
-4.4608334375 2.0779750000 -4.8851058400
-3.8700537500 2.1291315625 -5.6773460048
-3.3757418750 1.6929234375 -4.0900991280
-6.1506071250 1.8230925000 -2.4245755440
-5.0199140625 1.9851218750 -2.4512696160
-3.8849693750 1.5768368750 -3.2083399200
-3.9482062500 2.1615428125 -2.4436279360
-2.7593234375 0.1278040625 -2.4126078960
-2.2443446875 -2.1118106250 -4.8743945360
-2.2431353125 1.2914109375 -4.8477393200
-2.2622837500 1.8497256250 -4.0256111200
-6.6973288781 -2.0863734375 -4.0378766640
-6.1319558750 -2.0384553125 -6.4726849356
-6.1408125313 -0.9589806250 -6.4746899182
-3.9011884375 -0.6478218750 -6.4272135721
-6.2026666875 0.1480946875 -6.4567722379
-2.7683668750 0.6420706250 -6.4430141054
-5.0392640625 1.4462781250 -6.4235086525
-2.2155750000 -0.9877503125 -4.8413280800
1.6215434375 -2.0096856250 -2.4707105680
-1.6648256250 0.7950834375 -3.2075368960
-1.6919559375 -1.3813078125 -6.4387741387
-1.6916065625 -1.9533825000 -5.6814427224
-1.1260625000 -1.3045528125 -4.0489635760
-0.5551568750 -1.8311415625 -5.6408369072
-0.5320846875 -1.2726253125 -3.2821015600
-1.1290725000 -1.8759690625 -4.8528424080
-0.0030100000 -1.8257934375 -4.7995060720
0.0266062500 -1.2297596875 -4.0633791520
0.5254196875 -1.8092250000 -5.6598750520
1.0848631250 -1.9210384375 -4.8065390080
1.1686593750 -1.3297078125 -4.0354157840
1.6067621875 -2.0004271875 -5.6919817648
-1.6863659375 -0.7971796875 -5.6780544792
-1.1083384375 -0.7633440625 -4.8526740320
-0.5201790625 -0.1518168750 -6.4448295873
-1.1338428125 -0.2027853125 -4.0013520240
-0.5749771875 -0.7304221875 -5.6973387120
-0.0425834375 -0.6526593750 -4.8433097360
0.5299750000 -0.7525000000 -5.6417500232
0.0590981250 -0.1123912500 -4.0065716800
1.1036890625 -0.7831375000 -4.8727884880
1.1447675000 -0.2214096875 -4.0828071520
1.6693137500 -0.9000840625 -5.6495536032
-2.2185312500 0.7422875000 -4.0115582000
-1.6786393750 0.2683065625 -5.6242207864
-1.1108646875 0.3462843750 -4.8130150080
-0.5582340625 1.0027868750 -6.4758467506
-1.1033262500 0.9275906250 -4.0105997520
-0.6018925000 0.4375250000 -5.6884199648
-0.0337012500 0.4214000000 -4.8614425360
0.5871515625 0.9681987500 -6.4455308086
-0.0135584375 0.9873068750 -4.0464379360
0.5064459375 0.3826059375 -5.6762943024
1.1025065625 0.3470503125 -4.9025392320
1.6974921875 0.2298350000 -5.6422603320
1.0697190625 0.8945343750 -4.0641303680
-1.6545996875 1.9272868750 -6.4530509988
-1.6867825000 1.3632478125 -5.6659586064
-1.1502365625 1.4804631250 -4.8410301840
-0.5451862500 2.0918290625 -6.4657543074
-1.0936512500 2.0388584375 -4.0228523440
-0.5676537500 1.5430684375 -5.6235848432
0.0100915625 1.5372096875 -4.8535418160
-0.0196456250 2.1256378125 -4.0854364080
0.5635015625 1.5185987500 -5.6517671000
1.1624646875 1.4401237500 -4.8889266800
1.7350903125 1.3798162500 -5.6638785152
1.6274021875 0.8039521875 -6.4282575033
-1.6973578125 -1.4644321875 -3.2348397120
-1.6849012500 -2.0815090625 -2.5962672560
-0.5942600000 -0.7442359375 -2.4593646160
0.5928893750 -1.3180978125 -3.2531149840
0.5576025000 -1.8925240625 -2.4543003840
1.7359637500 -1.4265115625 -3.2256437920
-1.6370100000 -0.9287731250 -2.4324374080
-0.5332537500 -0.1437275000 -3.2724393680
-0.6021343750 0.3550187500 -2.4373980240
0.6267250000 -0.1675925000 -3.2028871280
1.6876425000 -0.3155796875 -3.1846766160
-1.6839740625 1.4276940625 -2.4363489120
-1.7092096875 -0.3324840625 -3.2221078960
-0.5333343750 1.0032034375 -3.1831482800
-1.6386493750 0.2137368750 -2.3960681920
0.5855793750 1.5147287500 -2.3659159360
0.5373118750 0.9707115625 -3.1952065920
1.6070175000 0.7936993750 -3.2067727280
1.7087528125 0.2520606250 -2.3672888480
-1.6851834375 1.9441643750 -3.2703281920
-0.6479696875 1.5769712500 -2.3623023280
0.5067281250 2.0640806250 -3.2093501760
1.0623418750 1.9828509375 -4.0224249280
1.7124481250 1.3768734375 -2.4600899280
2.1606425000 -2.0678968750 -4.8606913200
2.2057521875 -0.3947803125 -4.0782869040
2.1570681250 0.6860918750 -4.0314265680
1.6607809375 1.9469056250 -3.2573114320
-0.5507896875 -1.7928178125 -2.3732985760
0.4924306250 -0.7568268750 -2.4682496880
0.4955078125 0.3906684375 -2.3952392640
1.6446290625 -0.8768640625 -2.3886337440
-0.5445009375 2.0881606250 -3.1968774000
2.2156825000 1.7991200000 -4.0299370880
1.6703215625 -0.3273912500 -6.4554705619
0.6232312500 -0.1959187500 -6.4531261204
2.7243456250 -2.1960637500 -5.6723167432
6.6693403125 -1.5377203125 -4.8546168320
6.6987953125 -0.4160115625 -4.8942499520
6.7011468750 1.2708650000 -4.0686894720
6.7082553125 0.1220931250 -4.0561907920
2.2886346875 0.1534293750 -4.8967885440
2.8237428125 -1.6211134375 -6.4337926700
2.2863503125 -1.5261909375 -4.0520461520
3.8909087500 -1.7412043750 -6.4474594909
3.3616728125 -1.6826706250 -4.0894126720
4.4156565625 -1.8719512500 -4.0559965120
5.5591340625 -2.0138243750 -4.0191610240
2.2531059375 -0.9669625000 -4.8751068960
2.7624409375 -0.4640775000 -6.4210709566
2.7410350000 -0.4920678125 -3.2008018560
2.8093915625 -1.0507990625 -5.6596458016
3.4015687500 -1.1209965625 -4.8975138560
3.2854418750 -0.5866140625 -4.0299111840
3.9867987500 -1.1816803125 -5.6439661104
4.5472903125 -1.2998631250 -4.8290625360
4.4333000000 -0.7513309375 -4.0146278240
5.0706540625 -1.3801387500 -5.7090369584
5.6019325000 -1.4461437500 -4.8147894320
6.2157171875 -0.9435140625 -6.4483818028
5.6411296875 -0.8749156250 -4.0112862080
6.1318806250 -1.5426787500 -5.7055930216
2.8706262500 0.1053365625 -5.6662344840
3.4098462500 -0.0271975000 -4.8315881760
3.3150178125 0.5263200000 -4.0170109920
3.9586337500 -0.0744168750 -5.7048210824
4.4643540625 -0.1635075000 -4.7830052240
5.0964003125 0.3129190625 -6.4601385922
4.5344171875 0.4124640625 -4.0214405760
4.9807437500 -0.2711821875 -5.6935165768
5.5369890625 -0.3406271875 -4.8620383280
6.1560009375 0.1779259375 -6.4353746273
5.6470959375 0.2282762500 -4.0736241840
6.1093459375 -0.3983412500 -5.6465383776
2.2798465625 1.2449440625 -4.8305131600
2.8212165625 1.2152337500 -5.6933430200
3.3470796875 1.1078950000 -4.7884450640
3.4069034375 1.7006634375 -4.0497018400
3.8595456250 1.0047353125 -5.6914338952
4.4127943750 0.9650140625 -4.8550572000
4.5333959375 1.5195662500 -4.0483159760
4.9921118750 0.8537784375 -5.6226859744
5.5840471875 0.7792809375 -4.8967885440
5.5919753125 1.3312396875 -4.0840116880
6.1897021875 0.7369528125 -5.6083027784
2.8281100000 -1.6005406250 -3.1904661600
2.7207981250 -2.1658159375 -2.4142787040
3.8730100000 -1.7721912500 -3.1938595840
4.9796821875 -1.9367737500 -3.2533869760
6.1539181250 -2.0648331250 -3.2743044560
2.8575112500 0.0900715625 -2.4613592240
2.8423806250 -1.0380200000 -2.3678198800
3.8678903125 -0.6307965625 -3.2492552880
3.9934234375 -1.1947818750 -2.4406489760
5.0433490625 -0.8094750000 -3.2916601360
5.0685712500 -1.3703159375 -2.4562561360
6.2207025000 -0.9534040625 -3.2449811280
6.1199346875 -1.5179268750 -2.4441460160
2.8207328125 1.7752818750 -3.2869456080
2.7440584375 0.6609503125 -3.2553556800
3.9244756250 0.4834812500 -3.2949240400
3.9423609375 -0.0640296875 -2.4618902560
5.0985234375 0.2920640625 -3.2292833040
5.0090162500 -0.2801450000 -2.4336937520
6.1813440625 0.1961203125 -3.1935098800
6.1214396875 -0.4088090625 -2.4403769840
3.9528959375 1.5686803125 -3.2365752800
3.8784253125 1.0201750000 -2.4237725200
5.0749675000 1.4336334375 -3.1886010720
4.9749253125 0.8460384375 -2.4386025600
6.1462184375 1.2722893750 -3.2297884320
6.1718975000 0.7314031250 -2.3708636000
6.7119506250 1.8486506250 -4.8345671360
3.8815025000 2.1415746875 -5.6330838400
4.4791353125 2.0622396875 -4.9059585600
5.0869806250 1.9939100000 -5.6402618384
5.6344512500 1.9372978125 -4.8310312400
6.1682962500 1.8027481250 -5.6918820344
3.8844453125 2.1389275000 -2.4531735600
5.0324109375 1.9985996875 -2.3988140160
6.1648428125 1.8454256250 -2.4177498400
2.7922587500 1.2273678125 -2.4631206960
3.9906956250 1.5866865625 -6.4463539082
5.0369528125 1.4077662500 -6.4253359206
-3.3291271875 6.7185081250 -4.8100490000
-3.3447953125 2.2780593750 -4.8562487840
-6.1745420000 6.3237950000 -5.6715629368
-5.5904420938 6.3726403125 -4.9148306800
-4.9856484375 6.4557915625 -5.6478426440
-4.4192846875 6.5725634375 -4.8544355040
-3.8708868750 6.6466578125 -5.6782889104
-6.1901644375 6.3015156250 -2.4441071600
-5.0057778125 6.4499731250 -2.3955242080
-3.8614806250 6.6377756250 -2.4239668000
-3.9192484375 2.7145228125 -3.2546692240
-5.5937315938 2.4201609375 -4.0977926160
-3.9431403125 2.7206503125 -6.4081245259
-4.4967384375 2.6097237500 -4.0346257120
-2.7642281250 2.3171490625 -5.6636155896
-6.1664257500 2.9601871875 -5.6636492648
-5.6301015313 3.0169203125 -4.8295288080
-5.5660463125 3.5903521875 -4.0686247120
-5.0757334375 3.1368231250 -5.6220811160
-4.4699440625 3.1635771875 -4.8653410880
-3.8726471875 3.8928840625 -6.4568836251
-4.4432034375 3.7340393750 -4.0790899280
-3.9411381250 3.3204734375 -5.6842546016
-3.3609203125 3.3694262500 -4.9014253600
-3.3457493750 3.9088075000 -4.0494039440
-2.7680040625 3.4164709375 -5.6638435448
-6.1362854375 4.0796787500 -5.6865613528
-5.6129875313 4.1817365625 -4.8236356480
-5.6149050625 4.7233350000 -3.9959121840
-5.0688937500 4.1990171875 -5.7004225832
-4.5374809375 4.3163400000 -4.8406286720
-4.4237056250 4.8710131250 -4.0307142080
-3.9887740625 4.4495190625 -5.6571369992
-3.3995396875 4.4561034375 -4.8886417360
-3.2999409375 5.0201290625 -4.0765901920
-2.8362396875 4.5912040625 -5.6598685760
-6.1731122500 5.7538837500 -6.4463356458
-6.1211225625 5.1691912500 -5.6857894136
-5.5611953750 5.2683062500 -4.8633205760
-5.6287094063 5.8318346875 -4.0577450320
-5.0099568750 5.3338812500 -5.7038160072
-4.4862437500 5.4423621875 -4.8193614880
-4.5179159375 6.0097203125 -4.0445987520
-3.9366096875 5.5432509375 -5.6884173744
-3.4007356250 5.5970681250 -4.8370668720
-3.3332256250 6.1496718750 -4.0166224320
-2.8578471875 5.7252484375 -5.6785103896
-6.1216708125 2.4024100000 -3.2085342000
-5.0673484375 2.5768959375 -3.2285191360
-3.3557334375 2.8230575000 -4.0304551680
-2.7787271875 2.8839025000 -3.2252034240
-6.1220725938 3.5290100000 -3.2748743440
-6.2234209063 2.9856243750 -2.4371648880
-5.0058584375 3.6565990625 -3.2426497680
-5.0284871875 3.1115740625 -2.3902009360
-3.9150425000 3.8607415625 -3.2235973760
-3.8981784375 3.2801743750 -2.4503629760
-2.7886306250 4.0187128125 -3.2290372160
-2.8191875000 3.4728950000 -2.4405194560
-6.2285311875 4.6328737500 -3.2721285200
-6.1299711563 4.0768568750 -2.4387450320
-5.0140284375 4.7872840625 -3.2901836080
-5.0787300000 4.2384428125 -2.4642086640
-3.8477071875 4.9755300000 -3.2505763920
-3.9540246875 4.4194728125 -2.4233321520
-2.7607881250 5.1426118750 -3.2158261760
-2.8027265625 4.5917012500 -2.4043315680
-6.1790556563 5.7334856250 -3.2121607600
-6.1080223438 5.1585487500 -2.4273602240
-5.0769159375 5.9138706250 -3.2382072320
-5.0205053125 5.3385843750 -2.4594552800
-3.9357496875 6.0991065625 -3.2862980080
-3.9584590625 5.5385881250 -2.4615276000
-2.7630993750 6.2566478125 -3.2555240560
-2.8602659375 5.7081021875 -2.4195372160
-2.2673228125 2.9978256250 -4.0928190480
-2.2510634375 4.1305531250 -4.0665264880
-2.2483625000 4.6851725000 -4.9002726320
-2.2900859375 5.7848437500 -4.8776713920
-2.8005362500 2.3327096875 -2.4243294560
-6.6857374219 2.4080806250 -4.0095894960
-6.6890558125 4.0132840625 -4.8548111120
-6.6665435656 5.1917125000 -4.8426750880
-5.0281109375 2.5954934375 -6.4703981434
-2.7999315625 4.0077343750 -6.4189667746
-2.7536393750 5.1575006250 -6.4535486146
-2.2120006250 2.4043046875 -4.8405380080
-2.2100118750 5.2368221875 -4.0536910560
1.1388146875 2.5396875000 -4.8471694320
-1.6799831250 2.5217350000 -5.6968568976
-1.1299593750 2.5936390625 -4.8569352400
-1.1545096875 3.1572481250 -4.0613974960
-0.5670625000 2.6554112500 -5.6600887600
0.0135046875 2.6914371875 -4.8808316800
-0.0113143750 3.2133496875 -4.0068436720
0.5843565625 2.6251365625 -5.6713142584
1.6866615625 2.4763700000 -5.7080020936
1.0955862500 3.6756937500 -4.8326502400
-2.2165828125 3.5784062500 -4.8699908560
-1.6413100000 3.6224946875 -5.6584645792
-1.0652175000 3.7206825000 -4.8497986880
-1.1606237500 4.2935231250 -4.0490671920
-0.5482634375 3.2143978125 -6.4615196640
-0.5474840625 3.8139118750 -5.7166255352
-0.0062081250 4.3267406250 -4.0477719920
-0.0028487500 3.7634809375 -4.8599919120
0.5587715625 3.7544375000 -5.6881427920
1.1232675000 4.2543393750 -4.0854364080
1.6381118750 3.5527943750 -5.6599890296
-1.6766237500 5.3167081250 -6.4433863459
-1.6592356250 4.7369740625 -5.6633241696
-1.1060406250 4.8314128125 -4.8698095280
-1.1340040625 5.4136596875 -4.0708395040
-0.5324071875 4.9254215625 -5.6717533312
0.0043537500 4.8940450000 -4.8259540560
-0.0356631250 5.4941637500 -4.0879102400
0.5404428125 4.8359278125 -5.6587300952
1.1292740625 4.8339256250 -4.8703535120
1.6396706250 5.2650140625 -6.4602387112
1.1025334375 5.3848228125 -4.0316985600
1.6730762500 4.6949550000 -5.6714981768
-2.1784068750 6.3441259375 -4.0270487920
-1.7157537500 5.8796856250 -5.6505806968
-1.1417440625 5.9721490625 -4.8730086720
-1.1055300000 6.5495315625 -4.0805146480
-0.5623459375 6.0134021875 -5.6284897656
0.0324112500 6.0616965625 -4.8668305680
0.5157312500 6.5360537500 -6.4675012991
-0.0195381250 6.6163025000 -4.0484843520
0.5694678125 5.9665993750 -5.6858088416
1.1263984375 5.9231290625 -4.8729180080
1.1365571875 6.4798446875 -4.0303645040
1.6934340625 5.8554175000 -5.6991584680
-1.7107953125 3.0376678125 -3.2482061760
-1.6682656250 2.5084721875 -2.4125949440
-0.5943540625 3.2131750000 -3.2605235280
-0.5578578125 2.7238350000 -2.4251713360
1.1151781250 3.0964837500 -4.0444303760
0.5639181250 2.6563115625 -2.4643899920
1.7087259375 3.0516293750 -3.2675953200
-1.6994406250 4.1345037500 -3.2284802800
-1.6538068750 3.5868046875 -2.3899548480
-0.5788606250 4.3417906250 -3.2687869040
-0.5456431250 3.7978809375 -2.4474228720
0.5675059375 4.3550131250 -3.2559644240
0.5343825000 3.8005012500 -2.4543133360
1.6567093750 4.1328375000 -3.2404867840
1.6807893750 3.5939534375 -2.4025830480
-1.6728075000 5.2915128125 -3.2066691120
-1.6719206250 4.6981128125 -2.4284093360
-0.5871918750 5.4520909375 -3.2434916480
-0.5667803125 4.8865737500 -2.4300153840
0.5071178125 5.4309940625 -3.2613006480
0.5703815625 4.9010996875 -2.4054324880
1.6696631250 5.2749578125 -3.2473642960
1.6912034375 4.7071159375 -2.4539377280
-1.6304525000 6.4256243750 -3.1973177680
-1.7094381250 5.8477715625 -2.4077897520
-0.5725584375 6.5523400000 -3.2231181520
-0.5243715625 5.9993062500 -2.3965733200
0.5603303125 6.5571103125 -3.2749391040
0.5718193750 6.0014428125 -2.4529404240
1.7172318750 6.4144040625 -3.2467037440
1.6302106250 5.8398165625 -2.4616830240
2.2167709375 5.7504975000 -4.8278450480
0.5755818750 3.2239787500 -3.2416136080
1.6569243750 2.4962037500 -2.4485626480
2.2054431250 2.3892412500 -4.7949858240
2.2168515625 3.5501740625 -4.8790054480
2.2357446875 4.1015415625 -4.0485620640
2.2307190625 5.1840396875 -4.0344702880
1.7047081250 4.1248556250 -6.4582987606
-1.6418206250 6.4426362500 -6.4670941400
-0.5643615625 6.5821712500 -6.4536137632
3.3454268750 6.6908403125 -4.9240654560
3.9492140625 6.6605253125 -2.4310385920
2.7258103125 2.3008225000 -5.6725084328
2.7738896875 2.3111156250 -2.3998501760
6.6967931250 6.3169150000 -4.8778138640
6.6682250000 4.6040368750 -4.1000333120
6.7178900000 5.7553350000 -4.0528621280
2.2733965625 2.9841731250 -4.0842707280
2.2557800000 4.6419306250 -4.8928122800
2.2673496875 6.3289012500 -4.0649852000
3.9562687500 6.6749437500 -5.6458726448
4.5016834375 6.5099715625 -4.8442034240
5.0820759375 6.4710700000 -5.6469800408
5.6180978125 6.4124287500 -4.7993506480
6.1309534375 6.2944743750 -5.6980653192
5.0856771875 6.4677240625 -2.3940217760
6.1500212500 6.3314006250 -2.4608670480
6.6788540625 2.9314309375 -4.8821657360
6.7095990625 3.4747493750 -4.0207800240
2.8507925000 2.8671996875 -6.4586974232
3.2998200000 2.2446806250 -4.8788888800
3.8982725000 2.7150737500 -6.4321497088
3.3853631250 2.8063412500 -4.0599080160
4.4531740625 2.6082321875 -4.0783128080
5.5795725000 2.4826050000 -4.0189926480
2.7574153125 3.9862746875 -6.4345835191
2.7866150000 3.4128293750 -5.6449711856