ITEM: TIMESTEP
134000
# source: voids-relax.134000.cfg
ITEM: NUMBER OF ATOMS
2298
ITEM: BOX BOUNDS pp pp pp
-6.7187500000 6.7187500000
-6.7187500000 6.7187500000
-6.4760000000 6.4760000000
ITEM: ATOMS x y z
-6.6917133469 -6.2994032500 -4.0108458400
-6.0808006563 -6.2457795625 -6.1482897912
-6.6635667563 -5.7373838438 -4.7841450000
-5.6751709063 -6.6365028250 -4.9794093520
-5.0484015625 -6.4746148125 -5.6260198192
-5.5424890313 -6.0803706563 -4.0447282720
-5.0391565625 -5.9459983438 -6.4388087206
-4.4406906250 -6.4594317813 -4.8232988960
-3.9405871875 -5.2405175000 -5.5799521456
-4.4779528125 -5.8357933750 -4.1608170480
-3.9315168750 -6.3191241250 -5.7114654584
-3.3514334375 -6.3282360938 -4.8974750000
-2.7627365625 -5.7302283750 -6.4517122801
-3.4197496875 -5.7940793438 -4.0570197200
-2.7625081250 -6.2923673750 -5.6698701104
-6.7146641803 -5.1165296875 -4.0684563360
-6.1084751875 -5.4950586875 -5.6756441120
-5.5747040938 -5.5171674063 -4.8563135440
-5.5650868750 -4.9602515625 -4.0004971920
-4.9979840625 -5.0087206250 -6.2992492368
-4.7642253125 -5.3901454063 -5.2545525736
-4.4343615625 -4.8760521875 -4.1848300560
-3.3616728125 -4.6106078125 -4.0825092560
-2.8493009375 -5.1572050000 -5.6860497488
-6.1894482188 -4.0342196875 -6.3928366327
-6.7160611294 -4.0471600000 -4.0029969280
-6.5764737500 -4.5745684375 -4.9461227120
-4.5379781250 -4.2687846875 -4.8407193360
-5.6012243438 -3.8371318750 -4.0660602160
-4.0068743750 -4.1314265625 -5.6586899440
-3.8727546875 -3.5819537500 -6.4226039553
-4.4869156250 -3.6969115625 -4.0732874320
-3.4008162500 -4.0694528125 -4.9123957040
-3.3747743750 -5.2179559375 -4.8298526080
-2.8241056250 -3.4880525000 -6.4260271689
-3.9276468750 -3.5812550000 -3.3043790000
-2.7984803125 -4.0606781250 -5.6351173040
-6.1460370313 -3.4864668750 -5.6977622424
-5.6203163438 -3.2301868750 -4.8578807360
-5.6476912188 -4.4053365625 -4.8811425280
-5.0715409375 -2.7445690625 -6.4194505318
-5.6128276250 -2.7427012500 -3.9728705760
-5.0055493750 -3.2892446875 -5.6244293136
-4.4989287500 -3.0924121875 -4.8049847680
-4.4903287500 -2.5098696875 -4.0449614080
-3.9412993750 -2.9680346875 -5.6496144776
-3.3885209375 -2.9930821875 -4.8537749520
-3.3595631250 -2.4069921875 -4.0903711200
-2.8010065625 -2.8968831250 -5.6569660328
-6.1055108750 -6.1671016563 -3.2625310880
-4.9650621875 -6.0146854688 -3.2260712080
-5.0169175000 -6.5388581563 -2.3795025840
-3.9568196875 -5.7720915625 -3.1818660320
-3.8348609375 -6.3605223750 -2.4230990160
-2.8755040625 -5.7123699375 -3.2719342400
-2.7489093750 -6.2570119688 -2.4385248480
-6.1439206250 -5.0637471875 -3.2646034080
-6.1321305625 -5.6344740938 -2.4386284640
-4.9738100000 -4.8569037500 -3.2771798000
-5.0840378125 -5.4303504063 -2.4638848640
-3.9356690625 -4.6824178125 -3.2395671920
-3.8947115625 -5.2095978125 -2.3690503200
-2.8305690625 -4.0288581250 -2.4773290400
-6.1438749375 -3.9322828125 -3.2145050720
-6.1529748125 -4.5182115625 -2.4397682400
-5.0420725000 -3.7978137500 -3.2571689600
-5.0365228125 -4.3539784375 -2.4015339360
-3.9251475000 -4.1166856250 -2.4161956000
-3.3202046875 -3.5494081250 -4.0393013840
-6.2234988438 -2.7527525000 -3.2409789600
-6.1358702188 -3.3389903125 -2.4838957040
-5.0238243750 -2.6804318750 -3.2187792320
-5.0198871875 -3.2539981250 -2.4276840240
-3.8935156250 -2.4849834375 -3.2474549600
-3.9271496875 -3.0630781250 -2.4328259680
-2.8175884375 -2.3624737500 -3.2482320800
-2.7659884375 -3.4437759375 -3.2207867920
-2.8467746875 -4.6235615625 -3.2267447120
-6.6933042125 -2.3975053125 -4.8513270240
-2.7153021875 -5.1741228125 -2.4262074960
-2.8448665625 -2.9079959375 -2.3836860800
-5.2342690625 -4.3683565625 -5.6967571672
-6.1734777500 -2.8317246875 -6.3904532057
-2.2507140625 -4.6251471875 -4.0122446560
-2.2604159375 -5.7302270313 -4.0288879760
-2.2667584375 -5.1863778125 -4.8522466160
-2.2456212500 -2.9607918750 -4.8517803440
-2.2478518750 -2.3815415625 -4.0693759280
-6.6962878750 -3.4885228125 -4.8653669920
-6.0907430625 -4.9967881250 -6.3996180409
-2.7754081250 -2.3364453125 -6.4543130417
-1.6623396875 -4.6610253125 -3.2471311600
-1.7227681250 -5.2704025000 -5.6746986160
-2.2377334375 -6.2919682813 -4.8186102720
-1.6166387500 -5.8432955313 -6.4589546499
-1.6796337500 -6.4150477188 -5.6513668832
-1.1038368750 -6.4037790313 -4.8409524720
-0.5432109375 -5.9566636875 -6.4049927323
-1.0850378125 -5.8721780938 -4.0064033040
-0.5693334375 -6.5621856563 -5.6873566056
-0.0006584375 -6.6359543063 -4.9029536960
0.5643750000 -6.1149251875 -6.4745243657
0.0519762500 -6.1090986875 -4.0405318240
0.6083290625 -6.6578887406 -5.6633151032
1.1570762500 -6.2318206875 -4.1183862960
-1.1523731250 -5.3415943750 -4.8947421280
-0.5310500000 -5.3688993750 -5.6499486392
-0.5598196875 -4.2916687500 -5.6388410040
-1.1113350000 -4.8098456250 -4.0590661360
-0.0048375000 -5.5407314063 -4.8283631280
-0.0021903125 -4.9392487500 -4.1047089840
0.5795190625 -5.5710786563 -5.6332820056
1.1574928125 -5.6349000625 -4.8444236080
1.6924531250 -5.2151475000 -6.4583782859
1.0931540625 -5.0806918750 -4.0380450400
-2.2287975000 -4.1038931250 -4.8698224800
-2.2341053125 -3.5300581250 -4.0719533760
-1.6566690625 -4.1193059375 -5.6783368328
-1.1219506250 -4.2284318750 -4.8290236800
-1.1310881250 -3.6347631250 -4.0847499520
0.0356362500 -4.3608853125 -4.8588521360
1.0955728125 -4.0163746875 -4.0106386080
-0.0458084375 -3.8181312500 -4.0163374880
0.6000112500 -5.0205321875 -6.4606544704
0.5955096875 -4.4726181250 -5.6394950800
1.1069543750 -3.4398118750 -4.7860489440
1.1914090625 -4.5428828125 -4.8761948640
-1.6757368750 -3.0298875000 -5.6398072232
-1.0852796875 -3.0674318750 -4.8692266880
-1.1680009375 -2.5408162500 -4.0048102080
-0.5307140625 -3.1816775000 -5.6497427024
0.0497456250 -3.2777825000 -4.8648230080
0.5993125000 -3.3214140625 -5.7035297680
1.1716425000 -2.8385240625 -4.0747510080
1.7064146875 -3.0005131250 -3.2317700880
1.6317425000 -3.5147259375 -5.6913095560
-1.6948046875 -5.8581466563 -3.2733460080
-1.6174718750 -6.3750711563 -2.4156386640
-0.5000900000 -5.9533204375 -3.2364457600
-0.5449175000 -6.5391067500 -2.4982983280
0.6307696875 -6.1025290938 -3.2317312320
1.6668546875 -6.3419450313 -3.2335186080
-1.6703753125 -5.2621115625 -2.5167419760
-0.5381853125 -4.8348528125 -3.2313167680
-0.6007100000 -5.3925050313 -2.4271659440
0.5166450000 -5.0571359375 -3.2217711440
0.5795862500 -5.5807805313 -2.3496352720
1.6641268750 -5.1977593750 -3.2389714000
1.7529218750 -5.7666292188 -2.4559064320
-1.6779809375 -3.5809325000 -3.2162535920
-1.7098546875 -4.1361162500 -2.3837378880
-0.6161765625 -3.7699981250 -3.2076923200
-0.5073731250 -4.3046493750 -2.3650352000
0.5399859375 -3.8980037500 -3.2353577920
0.6326643750 -4.4753325000 -2.4653872960
1.7272831250 -4.0511106250 -3.3028377120
1.6926950000 -4.6114006250 -2.4843619760
-1.6600284375 -3.0310565625 -2.3735576160
-0.0214462500 -2.7460203125 -4.0064162560
-0.5283759375 -3.1750125000 -2.4753603360
0.6089875000 -2.7698718750 -3.2867254240
0.5431168750 -3.3129081250 -2.4612556080
1.7028671875 -5.7624918125 -5.6416269792
2.1902721875 -3.5952031250 -4.8554069040
1.0500196875 -2.2708031250 -4.8618051920
-1.7341496875 -2.4944971875 -3.2041175680
-0.5725718750 -2.5896078125 -3.2274700240
0.4996331250 -2.2486850000 -2.3745031120
1.6347793750 -3.5433881250 -2.3867686560
1.6590878125 -2.4400753125 -2.4219851440
1.7297018750 -4.6074500000 -5.7323712816
0.5181365625 -3.9120056250 -6.4470323339
2.2353281250 -5.2911634375 -4.0102370960
2.2346159375 -2.4565496875 -4.9230811040
0.4820165625 -2.2454062500 -5.6809712696
1.6148784375 -2.4336387500 -5.6336537280
0.5233503125 -6.6703291781 -2.4381880960
-1.6681043750 -4.6931812500 -6.4266826696
-0.5467315625 -3.7305859375 -6.4650462734
-1.6845921875 -2.4453965625 -6.4333453079
-0.6133950000 -2.6239540625 -6.4671487068
6.6816759375 -2.9611412500 -4.0312452400
2.2520040625 -4.7325396875 -4.8366912640
2.2765543750 -3.0149315625 -4.0876641520
6.2924990625 -6.3092515938 -6.4577428608
6.3689718750 -4.6383428125 -5.6662137608
2.2527162500 -6.3400382500 -4.0693500240
3.3697353125 -6.5590117188 -4.0072322320
4.5201331250 -6.5420065625 -4.0530175520
5.6430781250 -6.4049695938 -4.0877548160
2.8060725000 -4.8009365625 -5.7466405000
2.3182240625 -5.8033995938 -4.9167346240
2.8020815625 -6.5089153750 -6.4531841454
3.4031678125 -6.0101892813 -4.8227678640
2.8557240625 -5.3482862500 -3.2824642160
3.9493887500 -6.0157335938 -5.6838932408
4.5165587500 -5.9973000313 -4.8737210320
5.1243771875 -4.7921618750 -5.6234786368
4.5435950000 -5.4377222188 -4.0592215600
5.0962121875 -5.9881813438 -5.6487959112
5.6758387500 -5.8189938125 -4.8616886240
5.6191996875 -5.2875756250 -4.0273207840
2.3013868750 -4.1613653125 -4.0569549600
3.3200971875 -4.8439768750 -4.8491122320
3.4196287500 -5.4106268438 -4.0878972880
3.4313462500 -4.2647400000 -4.0746603440
3.8996431250 -4.9015565625 -5.6277476160
4.5127425000 -4.8969878125 -4.8998452160
4.4924787500 -4.3502562500 -4.0915886080
5.7040978125 -4.7352003125 -4.9058549440
5.6172243750 -4.2331215625 -4.0496370800
6.2104362500 -5.7716266250 -5.6588324160
2.8153443750 -2.5504912500 -5.6506856080
2.7559371875 -3.6993706250 -5.6364591312
3.3595900000 -3.7272937500 -4.9314999040
3.8551246875 -3.2197325000 -6.4442393646
3.3333331250 -3.2182140625 -4.0307401120
4.5098265625 -3.7455821875 -4.8302152640
4.4362831250 -2.6240884375 -4.8276637200
4.9896796875 -2.6222071875 -5.6607259984
5.6508046875 -3.6547312500 -4.8147635280
6.1453046875 -3.4895978125 -5.6717481504
5.5873528125 -3.0480281250 -4.0928708560
2.7880662500 -6.4979853125 -3.2378575280
3.9739121875 -6.5359274375 -3.2570264880
5.1067606250 -6.4966697813 -3.2377927680
6.1737653125 -6.3146024063 -3.2276902080
2.8341165625 -5.9103271563 -2.4752696720
3.9448065625 -5.4479548750 -3.2512239920
3.9227556250 -6.0111312500 -2.4083337360
5.0577406250 -5.3648950000 -3.2083269680
5.0282587500 -5.9274572813 -2.4456614000
6.1962462500 -5.2363115625 -3.2210846880
6.1905084375 -5.7863366563 -2.3911982400
2.8656006250 -4.2754765625 -3.2450199840
2.7583021875 -4.8166450000 -2.4192263680
3.9634443750 -4.3690284375 -3.1971105360
3.9433418750 -4.9176143750 -2.3858490640
5.0274121875 -4.2281631250 -3.2468980240
5.0919793750 -4.7878618750 -2.4250547680
6.1443640625 -4.0347706250 -3.2230792960
6.1681215625 -4.6344190625 -2.4882993840
2.7802725000 -3.1154037500 -3.1931601760
2.7850293750 -3.7138025000 -2.4523187280
6.1096012500 -2.9184100000 -3.2215898160
3.9097481250 -3.7695950000 -2.4492750080
4.4841743750 -3.1894981250 -4.0325663440
5.0401240625 -3.7013996875 -2.3523681440
5.0611268750 -3.1794871875 -3.2300474720
6.2011509375 -3.4815487500 -2.4146284080
3.3851078125 -2.6414228125 -4.8370150640
3.9768818750 -3.7711000000 -5.6471756160
3.9040506250 -2.6245453125 -5.7090330728
5.5464893750 -2.4687912500 -4.8441257120
6.1306712500 -2.4231171875 -5.6052784864
2.8383225000 -2.5434768750 -2.4297822480
3.9166550000 -3.2134303125 -3.2564047920
4.9817246875 -2.6088637500 -2.4345485840
6.1426440625 -2.3852368750 -2.3553471040
3.9240053125 -2.6598859375 -2.4359214960
4.0012978125 -5.4457094688 -6.4699674765
2.8811075000 -5.9045651563 -5.6995858840
6.1136728125 -5.2103906250 -6.4653462676
3.9502487500 -4.3395331250 -6.4312318006
5.0801946875 -3.6691093750 -5.6397631864
3.9025859375 -6.5931015813 -6.4713113760
5.0319675000 -4.2548096875 -6.4522629991
6.1156346875 -4.0923100000 -6.4368673453
5.0437387500 -5.3697325000 -6.3972374633
2.7793721875 -3.1349284375 -6.4463356458
-6.1818976875 -2.2229521875 -5.6923780960
-5.5856556563 -2.2034678125 -4.8950400240
-5.0538706250 -1.5064781250 -6.4022203567
-5.6532583750 -1.6775778125 -4.0265307120
-5.0344937500 -2.1107356250 -5.7170361136
-4.5245137500 -1.9429415625 -4.8475709440
-4.5111568750 -1.4163393750 -3.9771706400
-3.9243412500 -1.9379696875 -5.6251455592
-3.3802031250 -1.7947931250 -4.7835103520
-3.3901468750 -1.2001031250 -4.0545458880
-2.8492875000 -1.7990528125 -5.6260949408
-6.1530231875 -1.1273928125 -5.6167228736
-5.5814134375 -1.1063765625 -4.8299044160
-5.5991536250 -0.4974025000 -4.1095918880
-5.0695253125 -0.8962409375 -5.6794934464
-4.4780468750 -0.8907584375 -4.8796789520
-3.9759950000 -0.2113315625 -6.4045111770
-4.5222428125 -0.3430593750 -4.0373715360
-3.9283725000 -0.8138018750 -5.6935619088
-3.3841000000 -0.6511946875 -4.8691360240
-3.3840193750 -0.1395618750 -3.9638300800
-2.7960346875 -0.6948800000 -5.6395442976
-6.1304737188 0.5284834375 -6.4544853033
-6.2012100625 -0.0381893750 -5.6290363400
-5.6519374688 0.1001362500 -4.8455633840
-5.0575793750 0.7161918750 -6.4745365794
-5.5650774688 0.6615818750 -4.0382393200
-5.0537631250 0.1899659375 -5.5920324760
-4.4564125000 0.2111300000 -4.8585671920
-4.4780737500 0.7812025000 -4.0783128080
-3.9093046875 0.3988250000 -5.6967493960
-3.3593346875 0.3898084375 -4.8611187360
-2.7741853125 1.0026121875 -6.4707123849
-3.3906440625 0.9415118750 -4.0235128960
-2.8006840625 0.4219509375 -5.7041631208
-6.6997356688 1.0618984375 -4.8089610320
-6.1709286563 1.1012434375 -5.6818144448
-5.6329247500 1.2466103125 -4.8136108000
-5.6327688750 1.8073437500 -3.9923374320
-5.0712990625 1.2757025000 -5.6519613800
-4.5261934375 1.3712296875 -4.8477134160
-3.8880331250 2.0355528125 -6.4725131921
-4.4269575000 1.9150856250 -4.0307142080
-3.9432343750 1.4773725000 -5.6245070256
-3.3678675000 1.5031993750 -4.8223663520
-2.7919362500 2.1316443750 -6.4305108922
-2.8445709375 1.5465218750 -5.6508475080
-6.2179424375 -1.6154562500 -3.2166810080
-6.1168131563 -2.2036290625 -2.4262204480
-5.1066262500 -1.4789984375 -3.2286486560
-5.0434700000 -2.0840218750 -2.4966793280
-3.9244756250 -1.3995559375 -3.2193491200
-3.9424146875 -1.9498081250 -2.3968841680
-2.8267662500 -1.2988687500 -3.2318218960
-2.7848009375 -1.8339768750 -2.3762257280
-6.1116961563 -0.5439768750 -3.2261748240
-6.2168956563 -1.0900500000 -2.3564609760
-5.0826134375 -0.3431937500 -3.2048946880
-5.0128325000 -0.9301571875 -2.4165841600
-3.9833856250 -0.2057953125 -3.2238823200
-3.9108634375 -0.7994640625 -2.4771218080
-2.7790631250 -0.1368609375 -3.2251775200
-2.8247371875 -0.7050656250 -2.4570203040
-6.1465248125 0.5807284375 -3.2786822320
-6.2307698750 0.0252625000 -2.4379420080
-5.0080890625 0.7510218750 -3.2185201920
-5.0850321875 0.2013743750 -2.3676903600
-3.9516059375 0.9498296875 -3.1852206000
-3.8947653125 0.3453975000 -2.4403122240
-6.2114467500 1.7210078125 -3.2520788240
-6.1274113125 1.1264118750 -2.4518783600
-5.0325050000 1.8804034375 -3.2917508000
-5.0952446875 1.3322475000 -2.4400402320
-2.8287281250 2.1080884375 -3.1819955520
-3.9610256250 1.4916834375 -2.3675996960
-2.8287684375 1.0104193750 -3.2489832960
-2.7576840625 1.5309478125 -2.3853568880
-2.2510903125 -0.7303550000 -4.8254230240
-2.2453121875 -0.1688421875 -4.0460752800
-2.2951921875 0.4328756250 -4.7925508480
-3.3305650000 2.1045812500 -4.0886096480
-3.8798362500 2.0283234375 -3.2238693680
-2.8085718750 0.4430478125 -2.4508940080
-2.2633453125 -1.2964096875 -4.0182932400
-2.2731815625 2.0826378125 -4.0363224240
-6.6816291750 -0.6400012500 -4.0320223600
-6.7122862669 2.2165425000 -4.8852483120
-6.1088151563 2.1950693750 -5.6358452064
-3.9269615625 -1.3927028125 -6.4589710990
-5.0115962500 1.8352668750 -6.4627323598
-2.2328690625 -1.8326600000 -4.8862844720
1.6609959375 -1.8516471875 -3.1622955600
-1.6902762500 0.8603359375 -3.2221597040
-1.7564693750 -1.3165525000 -6.4732900919
-1.6623934375 -1.8725425000 -5.6592119096
-1.1396746875 -1.4613818750 -4.0197309120
-0.5371506250 -2.0377700000 -5.6910116600
-0.5304318750 -1.4828550000 -3.2751333840
-1.0989456250 -1.9951865625 -4.8625952640
-0.0300865625 -2.1595003125 -4.7722421120
0.0392106250 -1.5560893750 -4.0654385200
1.1421471875 -1.7025984375 -4.0587164320
-1.6905046875 -0.7479178125 -5.6739435144
-1.1570493750 -0.8724028125 -4.7858417120
-0.5187412500 -0.3777012500 -6.4266482173
-0.5752862500 -0.4272990625 -3.2214862000
-0.6500793750 -0.9551643750 -5.6737013120
-0.0664215625 -0.9960412500 -4.8694209680
0.5011246875 -1.1339771875 -5.6159677720
-0.0045150000 -0.4317737500 -4.0566182080
1.1302012500 -1.1727578125 -4.9303860320
1.0365687500 -0.6518396875 -4.0410110480
1.7301184375 -1.2691987500 -5.6492103752
-1.6460131250 0.8941850000 -6.4232111450
-2.2299128125 1.0025046875 -4.0219586560
-1.7531234375 0.3034590625 -5.6437239080
-1.0949278125 -0.2672315625 -4.0751266160
-1.1730131250 0.2965521875 -4.8675040720
-0.5875815625 0.1768106250 -5.6070438440
0.0296968750 0.1018025000 -4.9174728880
-0.0620006250 0.6291840625 -4.0479274160
0.6267653125 0.0297237500 -5.6559739096
1.1591859375 -0.0788646875 -4.8163954800
1.6902896875 -0.1516153125 -5.7137178112
1.0923612500 0.4898237500 -4.0298075680
-2.2382575000 1.5166637500 -4.8904938720
-1.6667471875 1.4652787500 -5.6453390224
-1.1227568750 0.8508490625 -4.0444174240
-1.0859246875 1.3929446875 -4.8846654720
-0.4960184375 1.3212153125 -5.6569815752
0.0219568750 1.2223556250 -4.7966825360
0.0090434375 1.7901840625 -4.0169073760
0.5464628125 1.1227971875 -5.7105147816
1.0728365625 1.0664134375 -4.8188693120
1.6206028125 0.9596659375 -5.6609306400
1.0791521875 2.1523112500 -4.8952213520
-1.6801175000 -1.2957646875 -3.2241154560
-0.5910484375 -0.9624475000 -2.3623800400
0.5726793750 -1.7191400000 -3.2284155200
1.6938640625 -1.2429553125 -2.4526943360
-1.7195968750 -0.7457543750 -2.4058728560
-0.5773825000 0.1433109375 -2.4334476640
-0.5762537500 0.7274793750 -3.1877462400
0.5217378125 -0.5411281250 -3.1710511120
1.6276306250 -0.6825309375 -3.2556535760
-1.6586443750 1.4480250000 -2.4609447600
-1.6613856250 -0.2099609375 -3.2594355600
-0.5905109375 1.8666703125 -3.2755996560
-1.7035256250 0.3315165625 -2.3714334880
-0.5565409375 1.3245746875 -2.4434725120
0.5215228125 0.5988825000 -3.2555240560
1.6701468750 0.4022918750 -3.2718435760
1.6975190625 -0.1405025000 -2.4151335360
-1.7271890625 2.0490843750 -3.2017473520
0.5752459375 1.6808565625 -3.2610157040
1.1818281250 1.6238278125 -4.0125555040
1.6344837500 0.9525709375 -2.4466716560
2.1716612500 -1.9389909375 -4.0442879040
2.2008206250 -0.8100662500 -4.0179953440
2.1829890625 0.8625800000 -4.8836163600
1.7272562500 1.5377875000 -3.1890414400
1.7018593750 2.1062475000 -5.6040454560
1.7120987500 1.5393596875 -6.4175495668
-1.6807356250 -1.8955878125 -2.4805022800
-0.5991915625 -2.0184200000 -2.4337326080
0.5415850000 -1.1506262500 -2.4455318800
0.5751250000 0.0438465625 -2.4398330000
0.5568903125 1.1491481250 -2.4127244640
-1.1726234375 1.9298400000 -4.0272430720
1.6391600000 2.1084646875 -2.4023499120
0.5114581250 -0.5576293750 -6.4063029566
2.2113690625 -0.2408000000 -4.8000759600
2.2384321875 1.4320881250 -4.0860710560
1.6400737500 -1.8540525000 -6.4107264532
0.6056146875 -1.6667875000 -6.4635926834
-0.6125215625 0.7379606250 -6.4229195955
-1.7256975000 2.0270334375 -6.4345296388
6.7065890625 -1.8036215625 -4.1335919440
6.6939175000 -1.1842065625 -4.8494878400
6.7042643750 0.4886950000 -4.0080352560
2.2736653125 0.3421993750 -4.0172700320
6.6661556250 -0.0663275000 -4.8370409680
6.6723906250 1.6483781250 -4.0774320720
3.3076406250 -2.0764296875 -4.0444692320
4.4958918750 -2.0596731250 -3.9922985760
5.0507665625 -2.0413175000 -6.4248846730
6.1111331250 -1.8783071875 -6.4708568385
5.6339809375 -1.9141315625 -4.0371124960
2.2773875000 -1.3650618750 -4.8357716720
2.7878378125 -0.9051634375 -3.2669736240
2.8316575000 -1.4439534375 -5.7058196816
3.3429140625 -1.4995846875 -4.7977575520
3.3803509375 -0.9131990625 -4.0151847600
3.8792584375 -1.5453259375 -5.6618813168
4.4484171875 -1.5394806250 -4.8385434000
4.4590328125 -0.9384481250 -4.0748157680
4.9822218750 -1.4516262500 -5.6653433864
5.5605181250 -1.3649543750 -4.8795105760
6.1730665625 -0.7560743750 -6.4322634274
5.5817359375 -0.8340253125 -4.0292117760
6.1547378125 -1.3314143750 -5.6464762080
2.7387371875 -0.3280765625 -5.6814932352
3.3005053125 -0.3946190625 -4.8934987360
3.8844318750 0.1271993750 -6.4240263439
3.3691440625 0.1414565625 -4.0373715360
3.9105946875 -0.4390837500 -5.6323028344
4.4703740625 -0.3675290625 -4.8583858640
4.4594359375 0.1887162500 -4.0553359600
6.1229043750 -0.1683315625 -5.7006634904
5.6115806250 -0.2583628125 -4.8169135600
5.5525228125 0.3335456250 -4.0714223440
2.7849890625 0.8170134375 -5.6106781752
3.3682571875 0.6935228125 -4.8553032880
3.3250690625 1.2765221875 -4.0920030720
3.9142496875 0.7334590625 -5.6798871872
4.4771062500 0.7528493750 -4.8831759920
5.0557384375 0.7429190625 -5.6874537456
4.4722015625 1.2697362500 -3.9877783280
5.0510756250 -0.3498990625 -5.6469735648
5.5907659375 0.9022609375 -4.8691230720
6.1393653125 1.4822100000 -6.4678484127
6.1807528125 1.4813634375 -3.1711158720
6.1896081250 0.9215840625 -5.6371235688
2.7482106250 -1.9823671875 -3.2383756080
3.8797959375 -2.0951750000 -3.2789283200
5.0719709375 -2.0449187500 -3.2369508880
6.2001431250 -1.8442162500 -3.2199060560
2.7642012500 -0.3377515625 -2.4548702720
2.8080746875 -1.4309459375 -2.4007309120
3.9359378125 -0.9984465625 -3.1932637920
3.9178240625 -1.5828165625 -2.4203402400
5.0099837500 -0.8899656250 -3.2427145280
5.0261490625 -1.4797509375 -2.4555955840
6.1712928125 -0.7354612500 -3.2798608640
6.0741934375 -1.2851087500 -2.4226845520
2.7942609375 1.3697784375 -3.2126529360
2.8182065625 0.2518590625 -3.2101402480
3.9273646875 0.1597450000 -3.2038326240
3.8649609375 -0.4135525000 -2.4358437840
5.0173071875 0.1684928125 -3.2042211840
5.0643250000 -0.3689265625 -2.3672370400
6.1040381250 0.3747853125 -3.2613913120
6.1791671875 -0.1980687500 -2.4552070240
3.8580540625 1.2678818750 -3.2541252400
3.9334653125 0.7294009375 -2.4018059280
5.6156253125 1.4391159375 -4.0162597760
5.0435640625 1.9146556250 -2.4661126080
6.1839778125 0.8999496875 -2.4038264400
2.2757212500 2.0148859375 -4.8599012480
2.8568393750 1.8894065625 -5.6528343448
3.4003728125 1.8675706250 -4.8085854240
3.9199337500 1.8467021875 -5.6766737960
4.4981493750 1.8016731250 -4.8476227520
5.0251546875 1.9517296875 -5.6949555440
5.5875946875 1.9807412500 -4.8926439040
6.1827684375 2.0369503125 -5.6683469552
3.9635653125 1.8107971875 -2.4227881680
5.0498528125 1.3394634375 -3.2309411600
6.1234553125 2.0781496875 -2.4491843440
2.7655987500 0.8075400000 -2.4015339360
5.0316718750 0.7691087500 -2.4532512720
2.8240115625 1.9203800000 -2.3614345440
5.0483209375 1.3450668750 -6.4091251974
2.8218750000 0.2574893750 -6.4448988805
-6.1709232813 6.6883006250 -2.4598956480
-6.5957232375 6.6641265625 -5.0260365520
-3.9618856250 3.1479896875 -3.2685796720
-6.1586185625 2.7629112500 -6.4447311521
-6.6661732281 2.7335368750 -3.9818851680
-5.5643625938 2.3632128125 -4.8274823920
-5.6751359688 2.9364028125 -4.0646095920
-5.0364287500 2.4194084375 -5.6859526088
-4.5025703125 2.4890415625 -4.8024850320
-3.8734668750 3.1504756250 -6.4263453995
-4.5292437500 3.0683859375 -4.0478885600
-3.9548981250 2.5752296875 -5.6445722640
-3.3828368750 2.6723425000 -4.8841085360
-2.7707453125 2.6800287500 -5.6076862632
-6.1262597188 3.9395793750 -6.3796678162
-6.1317973125 3.3396218750 -5.6540362904
-5.5833726250 3.5292250000 -4.8570259040
-5.5897917188 4.0654350000 -3.9950573520
-4.9989112500 3.4914387500 -5.6222935288
-4.4372506250 3.6415087500 -4.8263685200
-4.5055265625 4.2370318750 -4.0970932080
-3.8990518750 3.7478396875 -5.6576265848
-3.3278237500 3.7450178125 -4.8362379440
-3.3889375000 4.3128731250 -4.0517223520
-2.7769668750 3.8176743750 -5.6798224272
-6.6823947094 4.3307181250 -4.8384656880
-6.1447591250 5.1464818750 -6.4617709328
-6.7145051341 4.9247228125 -4.0862912400
-6.1767551563 4.5853587500 -5.6964735184
-5.5953803750 4.5853856250 -4.9171620400
-5.6049223438 5.1100259375 -3.9951091600
-5.0040712500 4.6491331250 -5.6818908616
-4.4715296875 4.8222081250 -4.8600178160
-3.9308046875 5.9081462500 -5.6746066568
-4.4514271875 5.3319328125 -3.9898636000
-3.8625287500 4.8033821875 -5.6228919112
-3.3119675000 4.9073750000 -4.7847019360
-3.3448893750 5.5127343750 -4.0784293760
-2.8099021875 4.9013550000 -5.6656995664
-6.6803589281 5.5175450000 -4.8106577440
-6.1678662500 6.2934396875 -6.3925354987
-6.6720079250 6.1183893750 -4.0651535760
-6.1192977500 5.7576596875 -5.6500198752
-5.5517582188 5.6260931250 -4.8101785200
-5.5824481250 6.2950925000 -4.1219610480
-5.0663406250 5.8735446875 -5.6890274136
-4.4767837500 5.8879496875 -4.8694080160
-4.4982165625 6.4209346875 -4.0364389920
-3.8959478125 6.5115571875 -6.3977740646
-3.3725303125 6.0771093750 -4.8758192560
-2.8115415625 6.5604428125 -6.4428773323
-3.3168721875 6.5761646875 -3.9740103520
-2.7807428125 5.9989434375 -5.6351820640
-6.1463313125 2.9262306250 -3.0017555200
-6.1435820000 2.2459706250 -2.4352220880
-5.1011437500 2.9575937500 -3.2615078800
-5.0074575000 2.3891875000 -2.4205474720
-3.9783600000 2.6110675000 -2.4293677840
-3.3707834375 3.1835050000 -3.9950703040
-2.7764428125 3.2468493750 -3.2152303840
-6.1320230625 3.8509321875 -3.1155906480
-4.9727215625 4.0600600000 -3.2217322880
-5.0690684375 3.4967331250 -2.3847222400
-3.9177300000 4.2624690625 -3.2297107200
-3.9008121875 3.6845087500 -2.4184881040
-2.8027937500 4.3554700000 -3.2834226640
-2.8237831250 3.8243125000 -2.4336030880
-6.1939135000 5.0418843750 -3.2240636480
-6.1074808125 4.4275621875 -2.4485626480
-5.0330290625 5.2279265625 -3.2295552960
-5.0450287500 4.6652715625 -2.4796604000
-3.8679171875 5.3532581250 -3.2167587200
-3.9061334375 4.8105309375 -2.3962883760
-2.7854996875 5.4396612500 -3.2313944800
-2.7414246875 4.8805940625 -2.4034378800
-6.1008252188 6.0926968750 -3.2219395200
-6.1154573125 5.5538128125 -2.3454647280
-5.0816862500 6.3390600000 -3.2272886960
-4.9423393750 5.8069753125 -2.4265053920
-3.9408425000 6.5455003125 -3.2712866400
-3.8995087500 5.9739900000 -2.4794272640
-2.7366812500 6.5950578125 -3.1966831200
-2.8119715625 6.0138590625 -2.4500521280
-2.2615581250 3.1905193750 -4.0562685040
-2.8526200000 2.6935871875 -2.4227363600
-5.0002953125 5.2401143750 -6.3920689677
-2.2491150000 3.7810168750 -4.8042335520
-6.6577389125 3.8156990625 -4.0037610960
-2.8197250000 3.2172062500 -6.4440731905
-5.0474340625 4.0472540625 -6.4349885282
-3.9000462500 5.3482190625 -6.4704767362
-0.5373118750 2.4111712500 -2.4313494400
0.5291687500 2.2546646875 -2.4654909120
-2.1917771875 4.3447200000 -4.0115711520
-2.2332721875 6.5435921875 -4.0954353520
1.1300937500 6.6017228125 -4.8313809440
1.7164390625 6.6075681250 -5.6384705768
1.7065625000 6.5719453125 -2.3534561120
-2.1877325000 2.6216965625 -4.8605488480
-1.6266496875 2.6158243750 -5.6736171240
-1.0926434375 2.5076659375 -4.7927580800
-0.5586640625 4.1134875000 -6.4209607350
-1.1028828125 3.0970346875 -4.0354805440
-0.5879578125 2.4032700000 -5.7074205488
-0.0394928125 2.3593696875 -4.8248790400
0.5791965625 2.8374221875 -6.4195342018
0.0565584375 2.9125781250 -4.0135916640
0.5072925000 2.2506065625 -5.6482299088
1.1851068750 3.2917037500 -4.8162271040
-1.6146634375 4.2613940625 -6.4493379194
-1.7106475000 3.6790800000 -5.6772980824
-1.1575331250 3.6514659375 -4.8564948720
-1.0621671875 4.1919759375 -4.0262328160
-0.4838440625 2.9944259375 -6.4553099571
-0.5780543750 3.5392225000 -5.6350110976
-0.0071084375 3.9883575000 -4.0863689520
0.0015990625 3.4330528125 -4.8993918960
0.6293587500 3.3926731250 -5.6100461176
1.0995100000 3.8755228125 -4.0701919040
1.7242328125 3.1933815625 -5.6686526224
-2.2198078125 4.8704487500 -4.8656260320
-1.6829662500 5.3996175000 -6.4291418658
-2.2199825000 5.4377934375 -4.0265825200
-1.6700796875 4.8266559375 -5.6643564440
-1.0954653125 4.7291937500 -4.8965813120
-1.1217087500 5.2663578125 -4.0612032160
-0.4851071875 4.6833450000 -5.6290583584
0.0599446875 4.5860709375 -4.8164213840
0.0131553125 5.1676325000 -4.0637159040
0.5940584375 4.4549075000 -5.6736132384
1.1643190625 4.4579309375 -4.8399033600
1.7183471875 4.9300306250 -6.4258898777
1.1605700000 4.9882284375 -3.9882834560
1.6819046875 4.3155068750 -5.7096418168
-2.2049728125 5.9696631250 -4.8681775760
-1.6209656250 5.9795531250 -5.6532242000
-1.0758062500 5.8553637500 -4.8038449920
-1.0986768750 6.4577937500 -4.0758260240
-0.5547000000 5.7548915625 -5.6816719728
0.0196187500 5.7472456250 -4.8369632560
0.6308100000 6.1876462500 -6.4138568221
0.0527018750 6.2789137500 -3.9877135680
0.5341003125 5.5946762500 -5.6982997504
1.1106093750 5.5169268750 -4.9099736800
1.1700703125 6.0308575000 -4.0374622000
1.7148937500 5.5064590625 -5.6598530336
-1.6795531250 3.1412306250 -3.2480378000
-1.6665590625 2.6063912500 -2.4060153280
-0.5486531250 2.9654278125 -3.2448775120
1.1292606250 2.6952668750 -4.0771082720
1.6815687500 2.6645621875 -3.2191548400
-1.6378700000 4.2500796875 -3.2242320240
-1.7000318750 3.7078900000 -2.4177886960
-0.5123987500 4.1275968750 -3.1830705680
-0.5764150000 3.5359168750 -2.4556732960
0.5479678125 3.9447528125 -3.2260971120
0.5604512500 3.4022406250 -2.3779224400
1.6333281250 3.7282881250 -3.2543195200
1.7452221875 3.2049512500 -2.3744254000
-1.6500443750 5.4417575000 -3.2094149360
-1.6734525000 4.8411415625 -2.4743889360
-0.5597793750 5.2289612500 -3.2451495040
-0.5444471875 4.6928587500 -2.3818080400
0.5389109375 5.0055628125 -3.2519234000
0.6413987500 4.4892403125 -2.3743347360
1.7304409375 4.9012340625 -3.2204759440
1.7246090625 4.3022843750 -2.4830149680
-1.6724178125 6.4941556250 -3.2512887520
-1.6384881250 5.9691121875 -2.3595694560
-0.5679090625 6.3054931250 -3.2531797440
-0.4761578125 5.7704387500 -2.4021297280
0.6313475000 6.2012450000 -3.2221078960
0.5965981250 5.5978340625 -2.5053571680
1.7662653125 6.0576250000 -3.2447091360
1.6581471875 5.4814115625 -2.4544169520
2.2301009375 2.5812496875 -4.0606721840
0.6028062500 2.8455921875 -3.1971623440
2.2351668750 4.2199931250 -4.8846654720
3.9324575000 2.3702137500 -3.2278067760
6.7055409375 3.2628937500 -4.8821527840
2.2910803125 3.1589815625 -4.8310960000
2.2777906250 5.9180093750 -4.1071828160
2.2832731250 6.5131428125 -4.8357069120
2.8386046875 6.3759190625 -5.6375043576
3.4386159375 6.3568781250 -4.9026558000
4.0320965625 6.2979815625 -5.6687471720
4.5533640625 6.3044450000 -4.8184678000
5.1022993750 6.4016384375 -5.6937574840
5.6620518750 6.4513840625 -4.8107743120
6.1858725000 6.5433368750 -5.6388941072