ITEM: TIMESTEP
111000
# source: voids-relax.111000.cfg
ITEM: NUMBER OF ATOMS
2298
ITEM: BOX BOUNDS pp pp pp
-6.7187500000 6.7187500000
-6.7187500000 6.7187500000
-6.4760000000 6.4760000000
ITEM: ATOMS x y z
-6.2234034375 -6.2746124063 -5.6541165928
-5.6452563438 -6.3346672813 -4.8687863200
-5.6098539063 -5.7764197813 -4.0617860560
-5.0629409375 -6.3431960625 -5.6137555704
-4.4538728125 -6.3365848125 -4.8947809840
-3.9622484375 -5.2942137500 -5.7117698304
-4.5010787500 -5.8144653750 -4.0055355200
-3.8939053125 -6.4600499063 -5.6876363688
-3.3730543750 -6.5620768125 -4.8191801600
-3.3371493750 -5.9828385938 -4.0240568800
-2.8128046875 -6.5900296344 -5.6869071712
-6.7147957738 -4.6829015625 -4.0707747440
-6.1587233750 -5.1826018750 -5.6212081512
-5.5654752188 -5.2109684375 -4.8442811360
-5.6428631250 -4.6273778125 -4.0769917040
-5.0590306250 -5.1672293750 -5.7054000368
-4.4941181250 -5.2553390625 -4.8387894880
-4.4516287500 -4.6716812500 -4.0495593680
-3.3410596875 -4.8495803125 -4.0623559440
-2.8732600000 -5.5061244688 -5.6411555264
-2.8223050000 -4.9407940625 -6.4449223236
-6.1785477188 -3.5178300000 -6.4296087854
-6.2020015313 -4.1191446875 -5.6639899024
-5.1152128125 -4.0841803125 -5.6719424304
-5.5656001875 -3.4891409375 -4.0018701040
-4.5604859375 -4.1196150000 -4.8540858000
-3.9742078125 -4.2074693750 -5.6079815688
-4.4457431250 -3.5499187500 -4.0723807920
-3.3481950000 -4.3169043750 -4.9035624400
-3.4269790625 -5.4336076563 -4.8368855440
-3.9054750000 -3.6158968750 -3.2000247360
-2.7655853125 -4.3763384375 -5.6600447232
-6.6829979188 -3.0651878125 -4.7775783360
-6.1756640313 -2.9553093750 -5.6542953304
-5.6093002813 -2.9546912500 -4.8411726560
-5.6679334688 -4.0387750000 -4.8143361120
-5.5858169063 -2.3959734375 -3.9914048880
-5.0379740625 -2.9740815625 -5.6399730088
-4.4703606250 -2.9838909375 -4.8716616640
-4.4751846875 -2.4579471875 -4.0241216400
-3.8669093750 -3.0772681250 -5.6246572688
-3.3051546875 -3.1976815625 -4.8443977040
-3.3297050000 -2.6262518750 -4.0593899360
-2.7333756250 -3.2541996875 -5.6640365296
-6.1737585938 -5.7585922500 -3.2518845440
-6.2279520313 -6.2845830313 -2.3753838480
-5.0760693750 -5.7185149063 -3.2299827120
-5.0438731250 -6.2788680625 -2.4328130160
-3.9183615625 -5.8741480313 -3.2571171520
-3.9067784375 -6.4336962813 -2.4576290480
-2.7641609375 -6.0662518750 -3.2546562720
-2.8514643750 -6.6153609344 -2.4276322160
-6.1714809375 -4.6847021875 -3.2111505040
-6.1323657188 -5.2282490625 -2.3798134320
-5.0577675000 -4.6289231250 -3.3022678240
-5.0285140625 -5.1647434375 -2.4145895520
-3.9122743750 -4.7480331250 -3.2343863920
-3.9520359375 -5.3128918750 -2.4506090640
-2.7796543750 -4.3659378125 -2.4244978320
-6.1848485625 -3.5364006250 -3.2718953840
-6.1388479688 -4.0924712500 -2.4541708640
-4.9994756250 -3.5479971875 -3.2265633840
-5.0663675000 -4.1146028125 -2.4126597040
-3.9470640625 -4.1926075000 -2.4284093360
-3.3920550000 -3.7650396875 -4.0770564640
-6.1932510313 -2.3837721875 -3.2309800160
-6.1479317188 -2.9776290625 -2.4688195760
-5.0167159375 -2.3759784375 -3.1913209920
-5.0557787500 -2.9737859375 -2.4613333200
-3.8889737500 -2.5235490625 -3.2490739600
-3.9005837500 -3.0579315625 -2.3946434720
-2.7769534375 -2.7256087500 -3.2572337200
-2.8336865625 -3.8048012500 -3.2323011200
-2.8055484375 -4.9411031250 -3.2088320960
-2.2696340625 -3.8976678125 -4.0352344560
-5.0887006250 -5.7991184063 -6.4288716871
-2.8311468750 -5.5049043438 -2.4283963840
-2.7421234375 -3.2569946875 -2.4015598400
-2.2615984375 -5.0148615625 -4.0560742240
-2.2846571875 -5.5521304375 -4.8871263520
-2.3004865625 -6.7170305241 -4.8029124480
-6.1498358125 -5.7575548750 -6.4642908480
-5.0248859375 -3.5116218750 -6.4681667988
-3.9430059375 -3.6578756250 -6.4085568637
-2.8795218750 -3.8092759375 -6.4521956487
-5.0329887500 -2.3844306250 -6.3977345610
-3.9381415625 -2.5464600000 -6.4661429711
-3.9766937500 -5.8827762500 -6.4690261510
-6.1159128438 -2.3865537500 -6.4566140940
-2.2032125000 -6.1181649688 -4.0813565280
-2.1949887500 -4.4520453125 -4.8565984880
-1.6952884375 -5.1083328125 -3.2389066400
-1.7000721875 -5.6625289063 -5.6336770416
-1.6978146875 -6.2139004375 -6.4575926176
-0.6416406250 -6.3875210000 -6.4475132417
-1.1354821875 -6.2856822188 -4.0618767200
-0.0475956250 -6.4723331250 -4.0299888960
1.1239931250 -6.5713083750 -4.0182802880
-1.7344990625 -5.1190828125 -6.4626165689
-1.1167771875 -5.7318596875 -4.8885510720
-0.5337240625 -5.8310069375 -5.6617064648
-0.5897046875 -4.7246653125 -5.6732998000
-1.1392581250 -5.1787318750 -4.0676921680
0.0202906250 -5.9221615625 -4.8355255840
-0.0349643750 -5.3418631250 -4.0260773920
0.5539340625 -5.9967988125 -5.7007580400
1.0825787500 -5.9814840938 -4.7983015360
1.0800659375 -5.4109036563 -3.9988134320
1.6963500000 -5.4389289063 -6.4598427686
-1.6434465625 -4.5397384375 -5.6969631040
-1.1144256250 -4.5911771875 -4.8127689200
-1.0924821875 -4.0372968750 -4.0084756240
-0.0118921875 -4.8075881250 -4.8678408240
1.1591590625 -4.3303150000 -4.0766679040
0.0760428125 -4.2613940625 -4.0337967840
0.5356590625 -5.3912486250 -6.4597062545
0.5628834375 -4.8610693750 -5.6350201640
1.6603643750 -4.2768875000 -6.4373632774
1.1413812500 -3.7627150000 -4.8858700080
1.1475087500 -4.9007503125 -4.8820491680
-2.1975418750 -3.3396890625 -4.8173668800
-1.6247550000 -2.8673609375 -6.4575932652
-2.1830428125 -2.7628306250 -4.0268674640
-1.6667337500 -3.4568775000 -5.6979629984
-1.1151109375 -3.4877031250 -4.8551996720
-0.5145353125 -3.0272671875 -6.4364831890
-1.0729709375 -2.9486309375 -4.0185263760
-0.5621981250 -3.6064234375 -5.6859176384
-0.0167834375 -3.7036975000 -4.8455892880
0.5523484375 -3.7079975000 -5.6462637952
1.1730803125 -3.2330893750 -4.0588070960
1.7270546875 -3.1984878125 -6.4451930204
1.7024371875 -3.2056903125 -3.2030555040
1.7450878125 -3.7336496875 -5.5976640056
-1.6826437500 -6.2212198438 -3.2160722640
-0.5920159375 -6.3870184375 -3.2066950160
0.5273143750 -6.5489954063 -3.2567415440
1.6892953125 -6.5320990938 -3.2281046720
-1.7121659375 -5.6554164375 -2.3952781200
-0.6042978125 -5.2776050000 -3.2192584560
-0.5693603125 -5.8333732813 -2.3985420240
0.5207434375 -5.4274667188 -3.2078606960
0.5805134375 -6.0107187188 -2.4322301760
1.7031762500 -5.4308731250 -3.3010762400
1.6353168750 -5.9615159688 -2.4212339280
-1.6992659375 -4.0166971875 -3.2592153760
-1.6541696875 -4.5605665625 -2.4105485280
-0.5196953125 -4.1522546875 -3.2575963760
-0.5356859375 -4.7023859375 -2.4462701440
0.6181653125 -4.2571075000 -3.2088968560
0.5758237500 -4.8472959375 -2.4694412720
1.6937296875 -4.3531721875 -3.1998045520
1.6957587500 -4.9242256250 -2.3956019200
-1.6396840625 -3.4516771875 -2.4738449520
0.0370740625 -3.1306418750 -4.0625113680
-0.5585834375 -3.5808384375 -2.4605173440
0.6042978125 -3.1772565625 -3.2461597600
0.5469465625 -3.7022731250 -2.3780260560
1.6116265625 -5.9990334688 -5.6713026016
2.1661787500 -5.9307991875 -4.8469492480
-1.6763146875 -2.3073800000 -5.6582521664
-0.5066071875 -2.4635909375 -5.6437666496
-1.1037965625 -2.4086987500 -4.8889007760
0.0598506250 -2.5764928125 -4.8493842240
0.6148059375 -2.6041337500 -5.6612453736
1.1711721875 -2.6326212500 -4.8084947600
1.6883143750 -2.6050206250 -5.6811862728
-1.6285175000 -2.8634640625 -3.2220431360
-0.4839246875 -3.0007818750 -3.2238693680
0.6468409375 -2.6283615625 -2.3924027760
1.7207256250 -3.7795118750 -2.4310644960
-0.5407115625 -2.4740856250 -2.3661361200
1.7299975000 -2.6176921875 -2.4347169600
1.7246628125 -4.8680300000 -5.6816460688
0.5985465625 -4.2909834375 -6.4254172592
2.2375050000 -6.5268530938 -4.0675496960
-1.7022893750 -2.2904084375 -2.4340305040
0.6282568750 -3.1708468750 -6.4688936650
6.7052184375 -2.4886921875 -4.0623818480
2.2409181250 -4.2179640625 -4.0340946800
2.2470993750 -2.5788578125 -4.8596940160
6.6891471875 -5.7875379688 -4.0572010480
6.7105531250 -5.2600556250 -4.8579325440
6.1028018750 -5.3151359375 -5.6434804104
6.6468593750 -4.1376750000 -4.9243633520
6.6724443750 -3.6305168750 -3.9640243600
3.8444015625 -6.2403844063 -6.4116115929
3.2838428125 -6.3227939063 -4.0449873120
4.4113162500 -6.6361928219 -4.8562617360
4.4635075000 -6.1173493125 -4.0039294720
5.0143509375 -6.6432973625 -5.6164003688
5.5552103125 -6.4341477813 -4.8298785120
5.5771134375 -5.8702860938 -4.0593122240
6.1270431250 -6.3965227813 -5.6229398336
2.7993000000 -4.7520106250 -5.6754938688
3.4193600000 -5.8079871563 -4.9051166800
2.8443559375 -5.2636031250 -3.2262136800
3.9844740625 -5.6380484688 -5.6806189752
4.5518859375 -5.5293189375 -4.8489309040
5.0542871875 -4.2213100000 -5.8516734488
4.3914556250 -5.0418843750 -4.0010152720
5.0547306250 -5.5203668750 -5.7626776664
5.5635012500 -5.2174050000 -4.8497339280
5.6279878125 -4.7766012500 -3.9887885840
6.6774296875 -6.3978410000 -4.7986512400
2.2509559375 -4.7921753125 -4.8057359840
3.3590928125 -4.6287081250 -4.8375201920
3.3773946875 -5.2310037500 -4.1082966880
3.4550231250 -4.0892193750 -3.9875451920
3.9334384375 -4.5381393750 -5.5388321360
4.6717215625 -4.4880846875 -4.9691384160
4.5514559375 -3.9997928125 -4.1418164640
5.9667203125 -4.2823431250 -5.5336888968
5.5954287500 -3.9538096875 -4.4201549440
2.3623125000 -3.6853687500 -4.8755472640
2.8390212500 -2.4883831250 -5.6014110192
2.2715018750 -3.1413112500 -4.0346775200
2.9006993750 -3.6120806250 -5.6900234224
3.4383606250 -3.5037743750 -4.7699755120
3.9434090625 -2.8923412500 -6.4423035587
3.3550481250 -2.9338631250 -3.9964950240
4.4499893750 -3.3136740625 -4.7897014080
4.5363790625 -2.3072053125 -4.8280134240
5.0309462500 -3.3049396875 -5.6389290776
5.6333628125 -3.1810862500 -4.8122249360
6.2057600000 -3.0905309375 -5.6426644344
6.1051937500 -3.7342543750 -6.3507159516
2.7833765625 -6.4145693438 -3.1781876640
3.8761678125 -6.2513520938 -3.2671679040
5.0388609375 -6.0697886250 -3.2221467520
5.0148615625 -6.6433227594 -2.4629264160
6.1429665625 -5.9369844688 -3.2425591040
6.1335334375 -6.5068097188 -2.4081006000
2.2859471875 -5.3918452500 -4.0469819200
2.7383340625 -5.8328693750 -2.4251195280
3.8770950000 -5.1431225000 -3.1462868880
3.9413531250 -5.7199473438 -2.4004589200
5.0014778125 -4.9118765625 -3.2639299040
5.0422875000 -5.4739927188 -2.4523187280
6.1779712500 -4.7825809375 -3.1731752400
6.1425365625 -5.3794451250 -2.4458038720
2.8294806250 -4.2035993750 -3.2850546160
2.7698315625 -4.7164281250 -2.3738037040
4.0127465625 -3.9657421875 -3.2202428080
3.9127850000 -4.5197837500 -2.4469825040
5.0618659375 -3.7325209375 -3.2456028240
5.0547037500 -4.3762443750 -2.4321136080
6.0107012500 -3.6349378125 -3.3059332400
6.2001296875 -4.1771275000 -2.4590149120
2.8221303125 -3.0876150000 -3.1718411840
2.8643912500 -3.6700768750 -2.4227881680
5.5428478125 -2.7268181250 -3.9046005840
3.9076115625 -3.4277718750 -2.3727027840
4.6325781250 -2.8340896875 -3.8575330160
5.0303415625 -3.2218959375 -2.4592610000
6.1298381250 -2.5505853125 -3.2212271600
6.2294906250 -3.1305746875 -2.3988917280
3.4325690625 -2.4089540625 -4.8558213680
3.9303478125 -3.4682725000 -5.6890183472
3.9776075000 -2.3105512500 -5.6730006088
2.8494487500 -2.4868512500 -2.4505313520
3.9698540625 -2.8932146875 -3.2894842000
5.0614090625 -2.3362437500 -2.5639002080
4.0001959375 -2.3874675000 -2.3886207920
5.0138806250 -4.9135696875 -6.4515613893
2.7758381250 -5.8252892813 -5.5614709368
2.8248178125 -4.1860500000 -6.4660427744
5.0824656250 -2.9209900000 -6.4504941445
6.1777965625 -2.5753237500 -6.4747970182
2.7603043750 -6.3533682500 -6.4416847122
3.8866087500 -5.0746450000 -6.4425343634
2.7861043750 -3.0259234375 -6.4621210254
-2.2419393750 -2.2127128125 -4.8655353680
-6.7054566441 -1.8932496875 -4.8157867360
-6.1348234375 -1.3245478125 -6.4564817246
-6.1434986875 -1.8589840625 -5.5909807736
-5.5271205625 -1.8725962500 -4.8589039440
-5.0452168750 -1.2255000000 -6.4665710606
-5.5792298438 -1.3077375000 -4.0526289920
-4.9675884375 -1.7894181250 -5.6697613136
-4.4123240625 -1.8908309375 -4.8333366960
-4.4561303125 -1.3379718750 -4.0100946240
-3.8604056250 -1.9719934375 -5.6818325776
-3.3364371875 -2.0329459375 -4.7944547920
-3.2768150000 -1.4692025000 -4.0185781840
-2.8107890625 -2.1748325000 -5.6720305040
-6.6779701438 -0.7430265625 -4.8360177600
-6.7011286000 -0.2047875000 -4.0022845680
-6.0928057188 -0.7520028125 -5.6388915168
-5.5487871875 -0.7247112500 -4.8203587920
-5.5325560313 -0.1478259375 -4.0613197840
-4.9915878125 -0.6831625000 -5.6401698792
-4.4257615625 -0.7831778125 -4.8131963360
-3.8489703125 -0.3101375000 -6.4516201914
-4.3982684375 -0.2023821875 -4.0433294560
-3.9069665625 -0.8807609375 -5.6789028352
-3.3414896875 -0.9155506250 -4.8532309680
-2.7568643750 -0.4664425000 -6.4185661693
-3.2901315625 -0.3620868750 -4.0338097360
-2.7882275000 -1.0471575000 -5.6690398872
-6.6711391906 0.3384368750 -4.8634371440
-6.7076599775 0.8939565625 -4.0314136160
-6.1173022813 0.3517668750 -5.6908795496
-5.6015683438 0.4516746875 -4.7900381600
-4.9741862500 0.9475990625 -6.4556043561
-5.5768809688 1.0228625000 -4.0118431440
-5.0629946875 0.3772175000 -5.6440179184
-4.4824006250 0.3605550000 -4.8547204480
-3.8874687500 0.8097840625 -6.4271019258
-4.4238668750 0.9113446875 -4.0596878320
-3.9107156250 0.2496418750 -5.6332638728
-3.3138084375 0.1738006250 -4.8920092560
-2.8098215625 0.6687440625 -6.4445796137
-3.3516887500 0.7416559375 -4.0818487040
-2.7215775000 0.1067340625 -5.6410195304
-6.1634399375 1.4881628125 -5.6405312400
-5.5892569063 1.5460515625 -4.8651079520
-5.0555234375 2.0862256250 -6.4319167023
-5.5913222500 2.1213646875 -4.0440288640
-5.0226015625 1.4923284375 -5.6532475136
-4.4577831250 1.4778159375 -4.8591241280
-3.9444571875 1.9402137500 -6.4556119978
-4.5147446875 2.0471762500 -4.0653608080
-3.8709943750 1.3834846875 -5.6346147664
-3.2848103125 1.3072134375 -4.8715969040
-2.7184062500 1.2341000000 -5.6590292864
-6.0975021250 -1.2802981250 -3.2000894960
-6.1454592188 -1.8498734375 -2.3893849600
-5.0177640625 -1.2248818750 -3.2202557600
-4.9834446875 -1.7983003125 -2.4373980240
-3.8643293750 -1.4242540625 -3.2632045920
-3.8742731250 -1.9701390625 -2.4205604240
-2.7034771875 -1.5982293750 -3.2480378000
-2.7936293750 -2.1535878125 -2.4506867760
-6.0948630000 -0.1893209375 -3.2597593600
-6.1386947813 -0.7223596875 -2.3883228960
-4.9805287500 -0.1359606250 -3.2469757360
-4.9797090625 -0.6743609375 -2.3968064560
-3.8573284375 -0.2952621875 -3.2183129600
-3.8819056250 -0.8722415625 -2.4418664640
-2.7384818750 -0.4655825000 -3.2018509680
-2.7975262500 -1.0451553125 -2.4218038160
-6.1499607813 0.9341750000 -3.2284284720
-6.1128544688 0.3580421875 -2.4280466800
-4.9921253125 0.9630387500 -3.2586584400
-5.0409571875 0.4197068750 -2.4121027680
-3.8863400000 0.8157771875 -3.1941704320
-3.9256446875 0.2516440625 -2.3942160560
-6.1377675938 2.1048500000 -3.1989238160
-6.1312289063 1.5059943750 -2.4496894720
-5.0405003125 2.0766850000 -3.1977192800
-5.0309731250 1.4866846875 -2.3996170400
-2.8218884375 1.7812212500 -3.2629844080
-3.8889334375 1.3779484375 -2.3867945600
-2.8356350000 0.6437771875 -3.1800527520
-2.7198575000 1.2357125000 -2.4437574560
-2.2837300000 0.5791159375 -4.0356100640
-3.4076828125 1.8524265625 -4.0248080960
-3.9649762500 1.9227718750 -3.2136113840
-2.7375143750 0.0792275000 -2.3705527520
-2.2901800000 2.2385262500 -4.7993765520
-6.6684519594 -1.3215646875 -4.0478497040
-6.6576449844 1.9955090625 -4.0589625200
-2.7051837500 -1.6205759375 -6.4653633384
-6.1133005938 0.9395096875 -6.4726713490
-6.1171249063 2.0464103125 -6.4522133930
-2.2263787500 -1.1164815625 -4.8733842800
-2.2311625000 1.6697840625 -3.9931145520
1.7315562500 -2.0771284375 -3.2957400160
-1.7167212500 0.5021593750 -3.2529854640
-1.6126075000 -1.7295809375 -6.4129620979
-2.1380406250 -1.6727537500 -4.0410240000
-1.0590900000 -1.8546840625 -4.0890241120
-0.5428481250 -1.9106915625 -3.1799361840
0.0013975000 -1.9946356250 -4.0558410880
1.1117246875 -2.0771821875 -3.9923892400
-1.6421968750 -0.5960606250 -6.4586671155
-2.2100790625 -0.5429959375 -4.0824444960
-1.6331400000 -1.1481134375 -5.6336187576
-1.0624090625 -1.2655303125 -4.8650950000
-0.5656381250 -0.7910118750 -3.2533999280
-0.4838575000 -1.3403234375 -5.6283187992
0.0971665625 -1.4452031250 -4.8671932240
0.6689590625 -1.4995846875 -5.6482856024
0.0122953125 -0.9144621875 -4.0121151360
1.2086493750 -1.5389834375 -4.8187527440
1.1596831250 -0.9501387500 -4.0419047360
1.7509734375 -1.5063034375 -5.6911865120
-2.1427303125 0.0200487500 -4.8645510160
-1.5878959375 -0.0427715625 -5.6556630616
-1.1367318750 -0.7171996875 -4.0445469440
-1.0211962500 -0.1461328125 -4.8301246000
-0.4899446875 -0.2145834375 -5.6901374000
0.0323440625 -0.3274584375 -4.7958406560
0.0772118750 0.2526653125 -4.0394050000
0.5712146875 -0.3824850000 -5.6673043192
1.1209965625 -0.3927378125 -4.8456799520
1.6990106250 -0.4233081250 -5.6187304336
1.2133256250 0.1749159375 -4.0556856640
-2.1552809375 1.1306850000 -4.8460296560
-1.6174584375 1.0839896875 -5.7038574536
-1.1238453125 0.4029906250 -3.9896304640
-1.1032321875 0.9610903125 -4.8008271760
-0.5611365625 0.8813387500 -5.6750003976
-0.0138137500 0.8233693750 -4.8294770000
0.5868693750 1.2916931250 -6.4296219965
0.0476090625 1.4102656250 -4.0625761280
0.5313590625 0.7055225000 -5.6583259928
1.1153528125 0.7366303125 -4.8665585760
1.6722565625 0.7425965625 -5.6554908000
1.1499006250 1.8320687500 -4.8782153760
1.7493878125 0.1479737500 -6.4161270486
-1.5878153125 -1.7266784375 -3.2059567520
-0.4533678125 -1.3367221875 -2.4078286080
0.5479543750 -2.0753009375 -3.2059049440
1.7370521875 -1.5645415625 -2.4059246640
-1.6316887500 -1.1760231250 -2.3651647200
-0.5096709375 -0.2213021875 -2.4678093200
-0.5007753125 0.3392968750 -3.2922041200
0.6013550000 -0.9087781250 -3.2517679760
1.7201881250 -0.9901287500 -3.2097516880
-1.6577306250 1.0784668750 -2.4732880160
-1.6823078125 -0.6319790625 -3.1977581360
-0.5049409375 1.4273446875 -3.2179114480
-1.5689759375 -0.0499740625 -2.4391335920
-0.5940987500 0.8644881250 -2.4194206480
0.6409821875 0.1722956250 -3.2463410880
1.7206584375 0.1533487500 -3.1785632720
1.7040900000 -0.4252028125 -2.4165841600
-1.6191650000 1.6462818750 -3.2746153040
0.5692662500 1.2768715625 -3.1789000240
1.1124368750 1.2867750000 -4.0297557600
1.7153506250 0.7522850000 -2.4153278160
1.6848878125 1.2878500000 -3.2506022960
-1.7352784375 2.1867246875 -5.6698662248
-1.1821909375 2.1176290625 -4.8512234080
-0.6223981250 1.9828375000 -5.6439531584
-0.0172403125 1.9486928125 -4.9139110880
0.5688093750 1.8618462500 -5.6453467936
1.7185621875 1.8645471875 -5.6716108592
1.6750918750 1.2930637500 -6.4702249622
-1.7650559375 2.1707878125 -2.3959516240
-0.5870575000 1.9899459375 -2.4008345280
0.5909275000 1.8855500000 -2.4551422640
0.6591362500 -1.4881359375 -2.4671358160
0.5507225000 -0.3680665625 -2.4058469520
0.5545656250 0.7151975000 -2.3907319680
-1.0550990625 1.5514937500 -4.0535226800
1.7077584375 1.8531790625 -2.4182679200
-0.5299078125 -1.8870012500 -6.4422543411
2.2386203125 1.9024006250 -4.7864504560
-0.5404831250 -0.7826537500 -6.4665895301
6.7077715625 1.4437518750 -4.8673227440
5.6241043750 -2.1199806250 -4.7728897120
2.2980140625 -0.3374021875 -4.8918538320
2.8616500000 -1.9534228125 -6.4661641735
2.3360825000 -2.0454696875 -4.0225674000
3.4722231250 -1.8583793750 -4.0502587760
3.9393778125 -1.7453162500 -6.4316440627
4.5068434375 -1.7245821875 -4.0221270320
5.0591515625 -1.7271756250 -6.4530837674
5.0836346875 -2.2184103125 -5.6678107424
5.6221962500 -1.5230196875 -4.0313488560
6.1577612500 -2.0322471875 -5.6181346416
2.2764737500 -1.4646875000 -4.7925638000
2.8308512500 -0.8352481250 -3.2503950640
2.8052662500 -1.3778409375 -5.6965421640
3.3401996875 -1.2954421875 -4.8412762720
4.0235368750 -0.6710553125 -6.4599002754
3.4069571875 -0.7429862500 -4.0348588480
3.9288293750 -1.1880496875 -5.5955424680
4.5257365625 -1.1887350000 -4.8847820400
4.5511334375 -0.6608696875 -4.0182414320
5.1051750000 -1.1017406250 -5.6410829952
5.6572278125 -0.9706309375 -4.8476357040
6.1771784375 -0.3616568750 -6.4242233438
5.6241178125 -0.4186318750 -4.0303256480
6.2229196875 -0.9392678125 -5.6689207288
2.2531596875 -0.8688150000 -4.0334729840
2.7977681250 0.3031231250 -6.4242334464
2.2832865625 0.2075959375 -4.0365685120
2.8816987500 -0.2681721875 -5.6503566272
3.4211471875 -0.1573128125 -4.7992729360
3.3621968750 0.4139556250 -4.0165317680
3.9521300000 -0.0734359375 -5.6815010064
4.4901540625 -0.0673353125 -4.7903360560
5.1106171875 0.5816421875 -6.4689242706
4.5263412500 0.5274621875 -4.0296910000
6.1926584375 0.2305606250 -5.6503851216
5.6165793750 0.1222140625 -4.8881236560
5.6680046875 0.6613668750 -4.0430833680
2.2540600000 0.7646609375 -4.8593184080
2.8165806250 0.8881784375 -5.6191293552
3.4193868750 0.9415118750 -4.8805337840
3.3892196875 1.4791865625 -4.0402598320
3.9957615625 1.0193150000 -5.6443339472
4.5443743750 1.1008403125 -4.8155795040
5.0688131250 1.1813712500 -5.7012579872
4.4397365625 1.6729284375 -4.0177881120
5.0189734375 0.0588428125 -5.6294767080
5.5943000000 1.2485856250 -4.8124710240
5.5960468750 1.8257800000 -4.0214923840
6.1321896875 1.3739978125 -5.6482868976
2.8808521875 -1.9053031250 -3.2214991520
3.9468087500 -1.7727153125 -3.1400051680
5.0803021875 -1.7274040625 -3.1954138240
6.2230406250 -1.4689068750 -3.2613783600
6.1602337500 -2.0240503125 -2.3663563040
2.8586937500 -0.2998309375 -2.4414908560
2.8344659375 -1.3669431250 -2.3816914720
3.9590100000 -0.6438981250 -3.2404997360
4.0018890625 -1.2012587500 -2.4170245280
5.0837421875 -0.5368684375 -3.1824359200
5.1004181250 -1.0988650000 -2.4362582480
6.1872162500 -0.3295546875 -3.2057365680
6.2005328125 -0.9416193750 -2.4618514000
2.7996225000 1.4500406250 -3.2331430000
2.8229903125 0.3034321875 -3.1833814160
3.9630681250 0.4175165625 -3.2524285280
3.9541187500 -0.1190696875 -2.3662138320
5.0870612500 0.5891806250 -3.2475715280
5.0327200000 0.0682356250 -2.3931928480
6.1717631250 0.8458503125 -3.1787057440
6.2052225000 0.2354787500 -2.4509846720
2.2589915625 1.3115000000 -4.0484325440
3.9123281250 1.5706153125 -3.1720613680
3.9606896875 0.9798087500 -2.4343672560
5.0361196875 1.6881800000 -3.2555370080
5.0365631250 1.1523865625 -2.3960034320
6.1948756250 1.9382384375 -3.2829693440
6.1521846875 1.4098625000 -2.3997854160
2.7630053125 1.9933053125 -5.6796462800
3.3194521875 2.0430643750 -4.8468197280
3.8932334375 2.1488712500 -5.6128282072
3.9192887500 2.1748056250 -2.4364784320
2.8379462500 0.8791484375 -2.4279301120
2.7925812500 1.9771400000 -2.3721976560
5.1016543750 -0.5542431250 -6.4164355653
4.5044918750 2.2016268750 -4.9019952480
6.2263865625 0.7956746875 -6.4394346907
3.9101646875 1.5912418750 -6.4385575813
2.8521093750 1.3984271875 -6.4618017586
5.0033590625 1.7651500000 -6.4573102640
-5.0951506250 6.5589646875 -3.1676447360
-3.9617781250 3.0799287500 -3.2411991440
-6.2030268125 3.1600834375 -6.4746492748
-6.1932738750 2.6260368750 -5.6466342224
-5.6073195938 2.6538121875 -4.8850151760
-5.0983487500 3.1840559375 -6.4697064160
-5.6164100625 3.2256450000 -4.0863560000
-5.0205590625 2.6427800000 -5.6342585864
-4.4304646875 2.5983556250 -4.8775159680
-4.5488893750 3.1332218750 -4.0173218400
-3.8815025000 2.5037153125 -5.6887735544
-3.3348515625 2.4130928125 -4.8257209200
-2.7938175000 2.3559834375 -5.7122775488
-6.2593326250 4.3042731250 -6.4551279815
-6.1523647500 3.7416853125 -5.6766802720
-5.6018733750 3.8117081250 -4.8431284080
-5.6659299375 4.3580634375 -4.0085921920
-5.0518415625 3.7644618750 -5.6728153952
-4.4894418750 3.6907975000 -4.8506794240
-4.4722821875 4.2246962500 -4.0048749680
-3.9460159375 3.6597165625 -5.7070332840
-3.4264550000 3.5053600000 -4.8147635280
-3.3396621875 4.0951587500 -4.0696738240
-2.8847087500 3.4370706250 -5.6708117208
-6.1413849688 4.8913171875 -5.6816188696
-5.6059382188 4.9013012500 -4.8396184160
-5.6657364375 5.4599250000 -3.9998366400
-5.0607103125 4.8802446875 -5.7189245152
-4.5661565625 4.7947956250 -4.7965271120
-3.9875512500 5.8286634375 -5.6198857520
-4.4951796875 5.4014718750 -4.0769139920
-4.0136065625 4.7494440625 -5.6479734592
-3.4389250000 4.6684025000 -4.8609115040
-2.8493009375 5.1066128125 -6.4055760904
-3.4036650000 5.2318906250 -4.0774320720
-2.8746709375 4.5254409375 -5.6278188520
-6.2210841250 6.0761015625 -5.6925011400
-5.6786041875 5.9749440625 -4.8654835600
-5.6131299688 6.5461184375 -4.0544552240
-5.1093809375 5.9700259375 -5.6408135936
-4.5331943750 5.9719071875 -4.8410042800
-4.5568175000 6.5621225000 -4.0646873040
-3.9834259375 6.3888996875 -6.4234212265
-3.3603828125 5.7927315625 -4.8958560000
-2.8668906250 6.2764412500 -6.4696643997
-3.4529537500 6.3193740625 -4.0119338080
-2.8118640625 5.7087203125 -5.6829943720
-6.1685985938 3.1961496875 -3.2524673840
-6.2163715938 2.6391115625 -2.3874421600
-5.1037775000 3.1981518750 -3.1875260560
-5.0284603125 2.6273806250 -2.3968453120
-3.8808709375 2.5089828125 -2.4556214880
-3.3842746875 2.9648096875 -3.9840870080
-2.7485465625 2.9190550000 -3.2887459360
-6.2207280313 4.2789165625 -3.2225741680
-6.1858415938 3.7186131250 -2.3874551120
-5.0549187500 4.3318065625 -3.2800940000
-5.0599040625 3.7832609375 -2.4387191280
-3.8809784375 4.2318046875 -3.2432585120
-3.9661453125 3.6592731250 -2.4661126080
-2.8019337500 3.9927918750 -3.1999081680
-2.8808790625 3.4293575000 -2.3835306560
-6.2209645313 5.4653806250 -3.1761801040
-6.1622399688 4.8582609375 -2.4691822320
-5.0549053125 5.4510428125 -3.2695381200
-5.0965615625 4.8680300000 -2.4413742880
-3.9607568750 5.3138728125 -3.2219654240
-4.0184306250 4.7647493750 -2.3780908160
-2.8862271875 5.1315259375 -3.1846248080
-2.8133690625 4.5593303125 -2.3971691120
-6.1647836875 6.6159665625 -3.2267317600
-6.2502394688 6.0521828125 -2.4412965760
-5.0846693750 5.9513343750 -2.4065593120
-4.0171271875 6.4282715625 -3.2219524720
-3.9173134375 5.8618003125 -2.4030622720
-2.8517600000 6.2858743750 -3.2702504800
-2.7953493750 5.7217009375 -2.4584450240
-2.2597306250 3.9734418750 -4.0827294400
-2.2558203125 4.5195418750 -4.9243892560
-2.3454618750 5.0364287500 -4.0223342640
-2.2526759375 5.5862375000 -4.8576346480
-2.2866996875 6.1411256250 -4.0335247920
-2.8215256250 2.3625140625 -2.4737672400
-2.3215700000 3.3908859375 -4.8471953360
-6.7067409466 3.7222412500 -4.8463534560
-6.2328271563 5.4540528125 -6.4387387798
-5.0564506250 6.5384456250 -6.4523161023
-1.7547762500 6.6579856250 -5.6335941488
-1.1596025000 6.5917387500 -4.8706384560
-0.6004950000 6.4697665625 -5.6687627144
-0.0352734375 6.4208137500 -4.8642531200
1.0511618750 6.3360634375 -4.8428823200
0.5163090625 6.3369368750 -5.6892255792
1.6309496875 6.3509118750 -5.6000031368
-1.7513093750 6.6597996875 -2.4162733120
-0.6202346875 6.4856900000 -2.4165064480
0.4989343750 6.3505087500 -2.4068960640
1.6274962500 6.3494203125 -2.4310904000
2.2356506250 6.3624009375 -4.8694209680
-2.1894928125 2.8208940625 -4.0584573920
-1.0969971875 2.6892334375 -4.0803333200
-0.0318603125 2.4702559375 -4.0328124320
1.1100046875 2.9483218750 -4.8393075680
-1.6871453125 3.8379515625 -6.4182664600
-1.7725406250 3.2735631250 -5.6419792736
-1.1476565625 3.2360456250 -4.9231847200
-1.1992028125 3.7645290625 -4.0324886320
-0.5599675000 3.1466593750 -5.6616313432
-0.0709634375 3.5743078125 -4.0439252480
0.0110187500 3.0259503125 -4.8570777120
0.5660950000 3.0106315625 -5.6873177496
1.7044796875 3.5240381250 -6.4525649102
1.1016465625 3.5078996875 -4.0365944160
1.6591415625 2.9532131250 -5.6659067984
-1.7696112500 5.0021093750 -6.4613945477
-1.6788409375 4.4321712500 -5.6750198256
-1.1236571875 4.3100646875 -4.8583729120
-1.1972812500 4.8705696875 -4.0405706800
-0.5536518750 4.2733131250 -5.6739849608
-0.0283934375 4.1570115625 -4.7977705040
-0.0336340625 4.7496590625 -4.0533931600
0.5119956250 4.0825409375 -5.6615471552
1.0791387500 4.0721403125 -4.8378569440
1.0725946875 4.6524387500 -4.0533154480
1.6190843750 4.0971206250 -5.6911126856
-1.6945090625 5.5832543750 -5.6949969904
-1.1747465625 5.4506128125 -4.8012286880
-1.1373096875 6.0364609375 -4.0536133440
-0.6359431250 5.3529490625 -5.6537668888
-0.0650375000 5.3142356250 -4.8648877680
0.5352156250 5.7422334375 -6.4436220723
-0.0165953125 5.8514937500 -4.0409203840
0.5119418750 5.1882993750 -5.6178147272
1.1023856250 5.1912153125 -4.8813627120
1.0760346875 5.7464125000 -4.0635475280
1.6867421875 5.2589537500 -5.6539857776
-1.6348196875 2.7204487500 -3.2137797600
-0.5738081250 2.5643721875 -3.1808428240
1.0723662500 2.3805875000 -4.0406095360
1.6693003125 2.3878840625 -3.2580626480
-1.7425212500 3.8442671875 -3.1819178400
-1.7118031250 3.2740737500 -2.3940865360
-0.6211484375 3.7284493750 -3.2332207120
-0.5415312500 3.1529750000 -2.4376959200
0.5139843750 3.5713784375 -3.2828527760
0.5692662500 3.0410271875 -2.4250418160
1.6455965625 3.5181928125 -3.2163831120
1.6634146875 2.9400040625 -2.4427472000
-1.7560796875 5.0050521875 -3.2534646880
-1.6615065625 4.4407846875 -2.4555049200
-0.6051578125 4.8279862500 -3.2736698080
-0.5766971875 4.2779625000 -2.4336289920
0.5214556250 4.6517265625 -3.2247760080
0.5275293750 4.0980478125 -2.3937756880
1.6168134375 4.6613209375 -3.2224316960
1.6516703125 4.0846103125 -2.4296527280
-1.7007440625 6.1214262500 -3.2688516640
-1.7074359375 5.5626143750 -2.4456743520
-0.5801909375 5.9210462500 -3.2413286640
-0.6184340625 5.3773381250 -2.4232414880
0.5533025000 5.7843465625 -3.2126917920
0.4794231250 5.2147846875 -2.4293289280
1.6296462500 5.7595006250 -3.1913598480
1.6525303125 5.1981221875 -2.3854086960
2.2163006250 2.5068731250 -4.0535874400
2.2269700000 3.0519115625 -4.8737080800
2.1768212500 4.1494731250 -4.8896778960
2.2340381250 5.2269859375 -4.8177813440
2.1457000000 5.8016406250 -4.0443526640
0.5338181250 2.4547221875 -3.2109432720
2.2175368750 3.6042196875 -4.0272430720
2.1953918750 4.6647071875 -4.0002122480
-0.6047143750 3.7113031250 -6.4629302663
0.5554390625 2.4154712500 -6.4555280688
-0.5299884375 2.5626253125 -6.4118596237
1.5939696875 4.6821625000 -6.4331920858
-0.5639584375 5.9055125000 -6.4675106764
1.6188828125 5.8185853125 -6.4738313948
2.8002943750 6.4966012500 -5.6478245112
3.3648171875 6.5254381250 -4.8370539200
3.9115756250 6.5883390625 -5.7201238704