ITEM: TIMESTEP
73000
# source: voids-relax.73000.cfg
ITEM: NUMBER OF ATOMS
2298
ITEM: BOX BOUNDS pp pp pp
-6.7187500000 6.7187500000
-6.7187500000 6.7187500000
-6.4760000000 6.4760000000
ITEM: ATOMS x y z
-5.0139209375 -6.5484014688 -6.4638293035
-5.5750064375 -6.4580100938 -4.0497666000
-3.9570078125 -6.5623012188 -6.4431864966
-4.4872784375 -6.5498460000 -4.0194718720
-3.3847718750 -6.4361392188 -4.1956320240
-6.6673507563 -5.1343746875 -4.0814730960
-6.1768398125 -5.7943413750 -5.6514756800
-5.5866271875 -5.8858131250 -4.8359400480
-5.0111796875 -5.4671019688 -6.4070944534
-5.5575376875 -5.3093443750 -4.0652701440
-5.0434700000 -6.0156690938 -5.6130678192
-4.3861612500 -5.9974397813 -4.8920610640
-3.8937037500 -5.4825026875 -6.4676134246
-4.4753325000 -5.4834110625 -4.0109106000
-3.8420365625 -6.0247353750 -5.5756222920
-2.9019490625 -5.9200948750 -5.5304314688
-2.7547412500 -5.3589825000 -6.4634318455
-2.3268912500 -5.8315310000 -4.8423253840
-6.1814811250 -4.7364231250 -5.6033110776
-5.5539565938 -4.7579096875 -4.9050389680
-5.0924362500 -4.2840631250 -6.4270067286
-5.6162743438 -4.2283512500 -4.0303774560
-4.9663253125 -4.8662293750 -5.6793250704
-4.4332596875 -4.9113659375 -4.8481537840
-4.4941046875 -4.3662468750 -4.0488729120
-3.8776459375 -4.8720075000 -5.7166190592
-3.3382781250 -4.9952696875 -4.8682682400
-3.9175956250 -4.3725893750 -3.2708074160
-2.7726265625 -4.7814790625 -5.6825954504
-6.6940470375 -3.4309296875 -4.8954415360
-6.1204439688 -3.5794812500 -5.6590020872
-5.5486729688 -3.6875993750 -4.8711565360
-5.5915856250 -3.1308837500 -4.0415032240
-4.9858096875 -3.6981343750 -5.7033497352
-4.4477721875 -3.8081471875 -4.8556659440
-3.9368246875 -3.2198265625 -6.4597627252
-4.4884743750 -3.2422268750 -4.0315690400
-3.8715453125 -3.8035784375 -5.6628527168
-3.3329165625 -3.8123531250 -4.8081839120
-3.3864918750 -3.1967409375 -4.0678475920
-2.8103456250 -3.6731943750 -5.6728050336
-6.1631496875 -6.3547899375 -3.3044178560
-5.0216071875 -6.5632230313 -3.2178078320
-3.8761812500 -6.6079258313 -3.2389066400
-2.8588281250 -6.4421175625 -3.2316276160
-6.1401285625 -5.2977612500 -3.2423648240
-6.1871920625 -5.8450934688 -2.4026089520
-5.0385518750 -5.3953873750 -3.2136502400
-5.0612881250 -5.9849980000 -2.4633538320
-3.8817309375 -5.4514204063 -3.2365752800
-3.9792603125 -6.0186132500 -2.4622011040
-2.8108696875 -4.7766684375 -2.4529663280
-2.8043121875 -5.3393368750 -3.2236880400
-6.1485081875 -4.1533565625 -3.1923312480
-6.1850434063 -4.7324590625 -2.4420607440
-5.0304759375 -4.2570940625 -3.2155412320
-5.0488181250 -4.8322593750 -2.4311810640
-3.9349031250 -4.9046606250 -2.4041243360
-3.3439084375 -4.3779106250 -4.0655809920
-6.1377340000 -2.9969253125 -3.2179114480
-6.1724605313 -3.5694165625 -2.4407784960
-5.0397343750 -3.1575168750 -3.2079772640
-5.0192690625 -3.7133187500 -2.3865614240
-3.9052196875 -3.2726493750 -3.2281046720
-3.8644368750 -3.8234659375 -2.4243424080
-2.7816565625 -3.1225793750 -3.2883314720
-2.7918421875 -4.2051715625 -3.2609509440
-2.2636946875 -6.3829898750 -4.0459587120
-3.3418121875 -5.5047901250 -4.1305482240
-6.6824971031 -2.3687356250 -4.8674134080
-6.1218589375 -2.4180915625 -5.7101119744
-5.6050674688 -2.5737515625 -4.8260447200
-5.0487106250 -2.5736575000 -5.6356742400
-4.4687615625 -2.7011525000 -4.8722833600
-3.8889737500 -2.6721812500 -5.6317847544
-3.3145609375 -2.6349593750 -4.8629190640
-2.7453081250 -2.5900646875 -5.6753760056
-6.1361819688 -2.4484065625 -2.4015598400
-4.9791850000 -2.5793281250 -2.4286424720
-3.8978021875 -2.6827565625 -2.4741169440
-2.8055484375 -2.5902125000 -2.4101211120
-2.7984937500 -5.9046404063 -2.3876234880
-2.7540693750 -3.6602003125 -2.4297433920
-2.2455271875 -3.5674412500 -4.8305779200
-6.6793892781 -3.9824853125 -4.0571880960
-6.1882952813 -4.1640528125 -6.4093530231
-6.1760349063 -3.0131846875 -6.4410174251
-2.2196062500 -4.6458409375 -4.8465606880
-2.2091518750 -2.4371190625 -4.8260706240
-1.7147459375 -5.1819165625 -3.1941186240
-1.7323221875 -6.2378030625 -6.4185413014
-0.5898525000 -6.0719332500 -6.4336543426
-1.1466621875 -6.1974233750 -3.9895657040
-0.6023225000 -6.6887151719 -5.6880741464
-0.0785825000 -6.5196761250 -4.8561192640
0.0296834375 -5.9854777188 -4.0189278880
0.5090796875 -6.4895385000 -5.6287177208
1.0945112500 -6.4286773750 -4.8509255120
1.6443200000 -5.7933470000 -6.4504159144
1.1317600000 -5.8475901563 -4.0923398240
1.6675400000 -6.3275897500 -5.6076007800
-2.2248334375 -5.2319443750 -4.0572399040
-1.7486890625 -5.6932752500 -5.6130989040
-1.1301071875 -5.6595901250 -4.8760523920
-0.5550896875 -4.5615878125 -5.8050371824
-1.1712125000 -5.1023800000 -4.0909798640
-0.5924862500 -5.4778560000 -5.7950330576
-0.0747528125 -5.4560200625 -4.8649784320
0.4669665625 -4.8415984375 -6.4484605510
-0.0095137500 -4.9230028125 -4.0359856720
0.5466240625 -5.4049118750 -5.6324038600
1.0727290625 -5.2385690625 -4.8181699040
1.1098971875 -4.7125581250 -4.0335506960
1.6360425000 -5.2103368750 -5.6280144272
-1.6481496875 -4.0709175000 -6.4458355691
-2.1968296875 -4.1376212500 -4.0101334800
-1.6611437500 -4.6255503125 -5.6074246328
-1.0500465625 -4.4868484375 -4.8398386000
-1.0940006250 -3.9483675000 -4.0272689760
-0.0195515625 -4.3516268750 -4.8733454240
1.1081100000 -4.0869887500 -4.7900899680
0.0351659375 -3.8030812500 -3.9997589280
0.5901615625 -4.2639740625 -5.6332172456
1.6553118750 -4.1433321875 -5.7163341152
1.1400509375 -3.0970615625 -4.8041946960
1.7251465625 -3.5169834375 -6.4245708460
-2.2054565625 -3.0202931250 -4.0508675200
-1.6989703125 -3.4984665625 -5.6662875872
-1.1178656250 -3.4267371875 -4.9048705920
-0.5461403125 -2.8148471875 -6.4413840962
-1.0666553125 -2.8897478125 -4.0236035600
-0.5231487500 -3.3840731250 -5.6706459352
-0.0034534375 -3.2591984375 -4.8625823120
0.5807821875 -3.1171640625 -5.6497802632
1.1275675000 -2.4920650000 -4.1136458640
1.6419281250 -2.3951806250 -3.1821509760
1.6509984375 -2.9558871875 -5.6685917480
-1.7477484375 -6.2634780938 -3.2297754800
-0.5482768750 -6.1374880938 -3.2637874320
-0.6188237500 -6.6772365906 -2.4551034080
0.6036125000 -5.9360277188 -3.2266022400
0.5185531250 -6.4978039063 -2.3709931200
1.6581068750 -5.7394680000 -3.2157096080
1.6731165625 -6.3134266250 -2.4050050720
-1.6120296875 -5.7289907813 -2.3884524160
-0.6300575000 -4.9802465625 -3.2909995840
-0.5362368750 -5.5303630313 -2.4997878080
0.5541625000 -4.7850668750 -3.2103604320
0.5092275000 -5.3731859375 -2.4629782240
1.7247703125 -4.6701225000 -3.2464188000
1.6600284375 -5.1882993750 -2.3920919280
-1.5996940625 -4.0624115625 -3.2200614800
-1.6859896875 -4.6131878125 -2.4061578000
-0.4370950000 -3.8788015625 -3.2190900800
-0.5213078125 -4.4570575000 -2.3832975200
0.9431646875 -3.6385121875 -3.8008421120
0.5715237500 -4.1366268750 -2.6191534400
1.6449918750 -3.5529153125 -3.2756385120
1.6330728125 -4.1034362500 -2.4174648960
-1.6767581250 -3.4696968750 -2.4875870240
0.0207206250 -2.6652475000 -4.0796468640
-0.5743456250 -3.3365312500 -2.4157422800
0.5859421875 -2.7461950000 -3.2293610160
0.5960740625 -3.2172868750 -2.4343931600
2.1358100000 -4.0438946875 -4.8026404560
2.2258278125 -3.4775578125 -4.0110401200
2.1796431250 -2.4295268750 -4.0072840400
-1.6738825000 -2.3579856250 -5.6932912120
-1.1142240625 -2.3437956250 -4.8605099920
-1.6432046875 -2.8783259375 -3.2459007200
-0.5004259375 -2.7682728125 -3.2123938960
1.7452221875 -2.9938212500 -2.4306888880
-1.6597731250 -2.3444809375 -2.3960940960
2.2149971875 -5.7476272500 -4.0597525920
2.2287168750 -5.1776568750 -4.8630744880
-1.1822178125 -6.7067616403 -4.8650950000
-0.5567290625 -3.9624365625 -6.4618321958
1.6892146875 -2.3868628125 -6.4598980736
0.5649393750 -3.6830575000 -6.4408144673
6.6769728125 -4.5528937500 -4.8366653600
2.2547721875 -2.9510631250 -4.8999358800
6.6606596875 -6.3215415313 -4.0290304480
6.7177556250 -5.7429630938 -4.7871239600
6.7122059375 -2.9137203125 -4.0072322320
2.2730471875 -6.2912950625 -4.8760912480
2.7268046875 -5.7402769375 -6.4485798389
2.8285265625 -6.3221045625 -5.6791282000
3.3668462500 -6.3206546563 -4.8217964640
3.3688484375 -5.7643717188 -3.9948242160
3.8940800000 -6.4258917813 -5.7274534072
4.4022190625 -6.5159042188 -4.8365099360
4.5145834375 -5.9306594375 -4.0570456240
4.9774515625 -6.5628091563 -5.6412695040
5.5504131250 -6.1463286250 -4.0553230080
2.2584406250 -4.6185762500 -4.0450650240
2.7735403125 -5.1583740625 -5.7131220192
3.3137412500 -5.2447503125 -4.8650302400
3.3641184375 -4.6548440625 -4.0797504800
3.8849156250 -5.2987018750 -5.6541658104
4.4717984375 -5.3980923438 -4.8941333840
4.9901500000 -4.9252871875 -6.4476001496
4.4109937500 -4.8574681250 -4.0465933600
5.0617315625 -5.4723493125 -5.6308107640
5.6445293750 -5.5791922188 -4.8546297840
5.5569706250 -5.0411990625 -4.0091879840
6.1932900000 -5.6118251875 -5.6853438648
2.7154768750 -4.0581518750 -5.6193508344
3.3169662500 -4.1118884375 -4.9033552080
3.8917418750 -3.6382165625 -6.4499746398
3.2966353125 -3.5716068750 -4.0491837600
3.9264509375 -4.1662700000 -5.6133216784
4.5186953125 -4.2985084375 -4.8694468720
4.4213137500 -3.7671896875 -4.0309343920
5.0729921875 -4.3299790625 -5.6969151816
5.5737943750 -4.4697290625 -4.7790419120
5.6337793750 -3.8547887500 -4.0672518000
6.1181475000 -4.5283568750 -5.6520649960
2.7687296875 -2.3843768750 -6.4283064618
2.8346809375 -2.9499343750 -5.6450670304
3.3877146875 -2.9884328125 -4.8225994880
3.3184846875 -2.4436765625 -4.0035538640
3.9401437500 -3.0433653125 -5.6824154176
4.4518840625 -3.1761009375 -4.7776301440
4.5325762500 -2.5715343750 -4.0779242480
4.9907546875 -3.2375103125 -5.6403550928
5.5729881250 -3.2874306250 -4.8425585200
5.6437365625 -2.7077771875 -4.0617472000
6.1256590625 -3.4506828125 -5.6159146688
2.7675875000 -5.7263704688 -3.2543065680
2.7962228125 -6.2788505938 -2.4602453520
3.9456262500 -5.8779992188 -3.2336481280
3.8478012500 -6.4452404375 -2.4268550960
5.0275331250 -6.0466747813 -3.1552755760
4.9786206250 -6.6244980313 -2.3918458400
6.1099506250 -6.1637261563 -3.2331948080
2.8307437500 -4.6255906250 -3.2226648320
2.7926484375 -5.1894012500 -2.3956925840
3.8945503125 -4.7261568750 -3.1610780720
3.9087537500 -5.3303337500 -2.4267903360
4.9946918750 -4.8716984375 -3.2393340560
5.0894665625 -5.4344891563 -2.4471638320
6.1826609375 -5.0769025000 -3.3114248880
6.1872028125 -5.6102543438 -2.4167136800
2.7918153125 -3.5134359375 -3.1795217200
2.7307553125 -4.0807134375 -2.3996040880
3.8874956250 -3.5876781250 -3.2293092080
3.9583381250 -4.1445953125 -2.4205086160
5.0434834375 -3.7821590625 -3.3044955680
5.0836884375 -4.3154396875 -2.4315825760
6.1766812500 -4.0216959375 -3.2481025600
6.1355759375 -4.5659415625 -2.4012230880
2.7760262500 -2.3232765625 -3.2338165040
2.8351915625 -2.8977700000 -2.4685087280
3.9556640625 -2.5118046875 -3.3105441520
3.9423071875 -3.0296053125 -2.4167136800
5.0717559375 -2.7390193750 -3.2425720560
5.0290918750 -3.2743828125 -2.3890741120
6.1637006250 -2.8835934375 -3.1873965360
6.1473875000 -3.4612850000 -2.4385637040
6.2057196875 -2.2896693750 -5.6981300792
6.1492821875 -2.2886212500 -2.4398977600
5.5646837500 -6.6943415875 -4.8895613280
5.0668781250 -6.0148803125 -6.4752563389
6.1317596875 -6.2030080000 -6.4455682398
3.9340431250 -4.7283337500 -6.4450264577
2.8421118750 -3.4992996875 -6.4719068442
6.1440953125 -2.8958887500 -6.4193761874
-6.7092238203 -1.8259412500 -4.0105868000
-5.5962833750 -2.0015559375 -4.0373715360
-4.4599465625 -2.1527412500 -4.0508675200
-2.8208537500 -2.0035178125 -6.4195707264
-3.3290331250 -2.0726806250 -4.0409592400
-6.7167182097 -1.2840740625 -4.8571036160
-6.1178223125 -0.7454721875 -6.4758824182
-6.7061010797 -0.7323571875 -4.0298075680
-6.1525582500 -1.3049156250 -5.6600227048
-5.5980584688 -1.4460631250 -4.8432838320
-5.6004073438 -0.8757487500 -4.0463731760
-5.0277615625 -1.4952712500 -5.6546087688
-4.4865931250 -1.5638025000 -4.7992858880
-4.4467240625 -0.9527993750 -4.0908114880
-3.9521837500 -1.5341862500 -5.6538096304
-3.3727318750 -1.5310015625 -4.8831889440
-3.3108521875 -0.9793384375 -4.0517353040
-2.7864403125 -1.4293737500 -5.6522217152
-6.1451461250 -0.1905437500 -5.6277968336
-5.5820463438 -0.3204306250 -4.8444365600
-5.5654483438 0.2743265625 -4.1036728240
-4.9987500000 -0.4157965625 -5.6454983320
-4.4436334375 -0.3725009375 -4.8419368240
-3.9552609375 0.1269440625 -6.4550763030
-4.4671221875 0.2055131250 -4.0330196640
-3.8863668750 -0.4642253125 -5.6741442704
-3.3380093750 -0.4011631250 -4.8187527440
-3.3834415625 0.1789875000 -4.0352733120
-2.8295343750 -0.2704028125 -5.6819128800
-6.1656786250 0.8854103125 -5.6410402536
-5.5924845938 0.8624187500 -4.8384656880
-5.0181806250 1.2687553125 -6.4469708119
-5.5996884375 1.4455390625 -4.0591438480
-5.0563162500 0.7173878125 -5.6509291056
-4.4440903125 0.7291725000 -4.9101550080
-3.9335056250 1.2601553125 -6.4303673841
-4.4874128125 1.2548071875 -4.0191998800
-3.8723515625 0.6784728125 -5.6638824008
-3.3119406250 0.7427175000 -4.8477652240
-2.7608015625 0.7985637500 -5.6892203984
-6.1490886875 -1.8787237500 -3.2060085600
-5.0315240625 -2.0230425000 -3.2512110400
-3.9005165625 -2.0999990625 -3.2554852000
-2.7588800000 -2.0420968750 -3.2187274240
-6.1402495000 -0.7206396875 -3.2255531280
-6.0960629688 -1.2997153125 -2.4533030800
-4.9988306250 -0.9325221875 -3.2875414000
-4.9980915625 -1.4663537500 -2.4277617360
-3.9040909375 -1.0194493750 -3.2624015680
-3.9058378125 -1.5659659375 -2.3991507680
-2.7892353125 -0.8579843750 -3.2139222320
-2.8048765625 -1.4482400000 -2.4803857120
-6.1226181563 0.3845006250 -3.2950665120
-6.1468446250 -0.1479871875 -2.4359733040
-5.0356762500 0.1419268750 -3.2278974400
-5.0545828125 -0.4055975000 -2.3933223680
-3.9193156250 0.0577006250 -3.2055293360
-3.9015646875 -0.4856312500 -2.3893331520
-6.1872014688 1.4157750000 -3.2575186640
-6.1748658438 0.9042765625 -2.3590384240
-5.0651715625 1.2675728125 -3.2242838320
-5.0357971875 0.7000265625 -2.4299635760
-2.8088003125 1.3489100000 -3.2492811920
-3.9049509375 0.6752343750 -2.4903458000
-2.8047287500 0.2679303125 -3.2670513360
-2.7790093750 0.8035087500 -2.4002128320
-2.2485371875 -0.2496687500 -4.8691878320
-2.2688546875 1.4940081250 -4.0613197840
-6.1684937813 1.9622109375 -5.6898990832
-5.5950041250 1.9892740625 -4.8796012400
-5.0517475000 1.8726768750 -5.7071252432
-4.5087650000 1.8055834375 -4.8651727120
-3.9255775000 1.8506393750 -5.6486961808
-3.3480068750 1.8448075000 -4.8852483120
-3.4035306250 1.2952943750 -4.0380061840
-2.7626290625 1.9130700000 -5.6465098832
-6.1410920313 1.9753259375 -2.4366856640
-5.0703315625 1.8448612500 -2.4689750000
-3.9232796875 1.2881321875 -3.1991958080
-3.9502890625 1.8460034375 -2.4110925120
-2.7554265625 -0.2866084375 -2.4394703440
-2.7828121875 1.9063378125 -2.4284093360
-2.2417646875 -1.8501825000 -4.0725103120
-6.6942547813 2.1776946875 -4.8356162480
-3.8850634375 -2.1184218750 -6.4454793891
-2.7384281250 -0.8593012500 -6.4347529313
-5.0435237500 0.1526096875 -6.4455529565
-0.5806478125 -2.2077409375 -5.7015882632
-2.1963728125 2.0469075000 -4.8695375360
1.7104459375 -1.8539853125 -2.3748657680
-1.6717593750 0.4625859375 -3.2434009840
-1.1097225000 -1.7666550000 -4.0795043920
-0.5786187500 -1.6165178125 -3.2507059120
-0.0195650000 -2.1298706250 -4.9013994560
0.0311212500 -1.6146231250 -3.9904334880
0.5770868750 -2.0491918750 -5.6500626168
1.1209965625 -1.8936662500 -4.8477911280
1.1512846875 -1.3501059375 -4.0285123680
1.7008381250 -1.8387606250 -5.6085941984
-2.2056984375 -1.3142950000 -4.9106342320
-2.2123768750 -0.7779640625 -4.0174125040
-1.5956225000 -1.2735121875 -5.6630845576
-1.0735756250 -1.1754990625 -4.8172373600
-0.5427406250 -0.5451728125 -3.2575057120
-0.5270456250 -1.0827131250 -5.6753889576
0.0321828125 -1.0597753125 -4.8351629280
0.5617546875 -0.8961334375 -5.6934492264
0.0111262500 -0.4794096875 -4.0817968960
1.1173953125 -0.7953118750 -4.8701462800
1.1123562500 -0.2671106250 -3.9959380880
1.7043587500 -0.7380546875 -5.6732479920
-2.2177653125 0.3093446875 -4.0411664720
-1.7010262500 -0.1094887500 -5.6643810528
-1.1155812500 -0.5773690625 -4.0867445600
-0.5475109375 0.5711206250 -6.4101094199
-1.1206203125 -0.0230050000 -4.8973843360
-0.5290881250 -0.0201159375 -5.6442873200
0.0145125000 0.1250090625 -4.8390226240
0.0212984375 0.6955653125 -4.0764347680
0.5784306250 0.2059834375 -5.6601107784
1.1497259375 0.2758046875 -4.8523243280
1.6895237500 0.3905878125 -5.6861624312
1.1114290625 0.8533618750 -4.0908892000
-2.2364165625 0.8895625000 -4.7917478240
-1.7302931250 1.0274312500 -5.6986041224
-1.0790581250 0.5111221875 -4.0149904800
-0.4792618750 1.7341228125 -6.4690094818
-1.1634590625 1.0468350000 -4.8680739600
-0.6110031250 1.1626796875 -5.6728555464
-0.0488856250 1.2634475000 -4.8955192480
0.6044053125 1.8830506250 -6.4167334613
0.0248996875 1.7805359375 -4.0052635280
0.5621443750 1.2914109375 -5.6329297112
1.1094537500 1.4444506250 -4.8526999360
1.6886637500 1.5013450000 -5.6383604848
-1.6727671875 -1.8051803125 -3.2564695520
-0.5196684375 -1.0688725000 -2.3929467600
0.6117421875 -1.5596368750 -3.2321197920
0.5370431250 -2.0992734375 -2.4519431200
1.7452893750 -1.3042437500 -3.2372617360
-1.6850356250 -1.2598462500 -2.4037616800
-0.5892746875 0.0178584375 -2.4024017200
-0.5088243750 0.5564334375 -3.2273664080
0.5286043750 -0.3426696875 -3.2225353120
1.7047081250 -0.1916993750 -3.2606919040
-1.6421296875 1.0143700000 -2.4286813280
-1.6268512500 -0.7142434375 -3.2283507600
-0.5685540625 1.7434215625 -3.2367566080
-1.6797815625 -0.1238131250 -2.4802432400
-0.5594165625 1.1557190625 -2.4797899200
0.5736200000 0.7640159375 -3.2293480640
1.6443871875 0.9490234375 -3.2383497040
1.7060518750 0.3741940625 -2.4620974880
-1.7084303125 1.5659256250 -3.2576481840
0.6103043750 1.8707150000 -3.2388030240
1.1345818750 2.0171434375 -4.0763959120
1.6835843750 1.4967090625 -2.3982959360
2.2267953125 -0.6942753125 -4.8029513040
1.7028537500 2.0395034375 -3.2390620640
2.2325331250 2.1416150000 -4.0929226640
-1.6210193750 2.1038153125 -5.6850032272
-1.1069275000 2.1779768750 -4.7933150160
-1.6591146875 2.1115687500 -2.4135792960
-0.5593896875 -2.1795221875 -2.4654909120
0.5821393750 -0.9413371875 -2.5019507920
0.5845312500 0.2147446875 -2.3974152000
0.5246000000 1.3253675000 -2.4041890960
1.6567496875 -0.7549859375 -2.4358308320
-1.1116171875 1.5960793750 -4.0274632560
2.2147418750 1.0009190625 -4.0330326160
1.6843368750 -1.3110431250 -6.4748650797
-1.6789484375 -0.6987903125 -6.4236240548
0.6070525000 -1.4797643750 -6.4562295491
1.6936356250 -0.1793234375 -6.4697921841
-1.6084015625 0.4472403125 -6.4734151694
6.7050303125 -0.1731825000 -4.8614166320
6.7133078125 0.9717462500 -4.8118104720
6.7135631250 0.3733071875 -4.0612550240
6.7084434375 1.5719590625 -4.1134256800
2.2421678125 0.4459368750 -4.8611834960
2.2930825000 -1.8763856250 -4.8566891520
2.2627809375 -1.3044050000 -4.0888816400
2.8319128125 -1.7776334375 -5.7012087696
3.3793296875 -1.8862487500 -4.8216021840
3.3964490625 -1.3007634375 -4.0597266880
3.9081490625 -1.9753528125 -5.6577004112
4.4830993750 -1.9852025000 -4.8333496480
4.5039006250 -1.4112868750 -4.0627963120
5.0263909375 -2.1650500000 -5.6151051688
5.6517721875 -2.1643243750 -4.9053757200
6.1399968750 -1.7068178125 -6.4490479242
5.6028731250 -1.6336237500 -4.0239532640
2.8297225000 -0.1501775000 -3.2477399040
2.7774506250 -0.7056703125 -5.6180439776
3.3809556250 -0.7386459375 -4.8657296480
3.9063215625 -0.3051790625 -6.4315835769
3.3899856250 -0.1804118750 -4.0729895360
3.9434090625 -0.8665575000 -5.6235382160
4.5543584375 -0.8667725000 -4.8991199040
4.4776437500 -0.3408287500 -4.0201065200
5.1047718750 -1.0241390625 -5.7033018128
5.6493937500 -1.0917028125 -4.8571165680
5.6123062500 -0.5370028125 -4.0200029040
6.1901456250 -1.1143181250 -5.7202805896
2.2712062500 -0.1081046875 -4.0557504240
2.7432387500 0.9468465625 -6.4690023841
2.8259331250 0.3908162500 -5.6451214288
3.3770990625 0.4016065625 -4.8500965840
3.3620221875 0.9477603125 -4.0241864000
3.9592921875 0.2917818750 -5.6823519528
4.4925325000 0.2119362500 -4.8470787680
4.4926400000 0.7749809375 -4.0342242000
5.0489121875 0.1319428125 -5.7184478816
5.5835096875 0.0081162500 -4.8618958560
5.5925800000 0.5465568750 -4.0165835760
6.1476965625 0.0090300000 -5.6599475832
2.2604562500 1.5452184375 -4.8536713360
2.8063681250 1.5307193750 -5.7033471448
3.3404684375 1.5039921875 -4.8473248560
3.3525487500 2.0648600000 -4.0285123680
3.8867162500 1.4227625000 -5.7087118632
4.4348184375 1.3161896875 -4.8809741520
5.0427578125 1.8237778125 -6.4396999477
4.4708846875 1.8500884375 -4.0110401200
5.0215937500 1.2595640625 -5.6565334360
5.5787528125 1.0930734375 -4.8728402960
5.5795053125 1.6451531250 -4.0662674480
6.1737115625 1.1282393750 -5.6428211536
2.8161640625 -1.2047390625 -3.2629973600
2.8585996875 -1.7712640625 -2.4386802720
3.9439868750 -1.4387396875 -3.2393211040
3.9282112500 -1.9862506250 -2.4098361680
5.0523925000 -1.6041015625 -3.2186885680
5.0200618750 -2.1722390625 -2.4336548960
6.1699356250 -1.7149878125 -3.2073685200
2.7749378125 0.4060678125 -2.4368669920
2.7872062500 -0.6858500000 -2.3765365760
3.9252550000 -0.2898468750 -3.2026021840
3.9126103125 -0.8720400000 -2.4418276080
5.0449884375 -0.4573856250 -3.2127565520
5.0349775000 -1.0354937500 -2.4325410240
6.1677184375 -0.5814675000 -3.2118887680
6.1882106250 -1.1481268750 -2.4193299840
2.7744675000 2.0939521875 -3.2405126880
2.7932934375 0.9775378125 -3.2492811920
3.9283321875 0.8162609375 -3.2276124960
3.8992534375 0.2729290625 -2.4020002080
5.0346818750 0.6863337500 -3.1915152720
5.0715409375 0.1035762500 -2.4303909920
6.1757137500 0.5820990625 -3.2423518720
6.2140778125 0.0115696875 -2.4627968960
3.9085925000 1.9739956250 -3.2110339360
3.9287487500 1.3954843750 -2.4438481200
5.0582512500 1.8604218750 -3.2374948720
5.0610462500 1.2880515625 -2.4652189200
6.1694787500 1.6680103125 -3.2745116880
6.1581778125 1.1388146875 -2.4159883680
6.1611878125 2.1841043750 -5.6091524296
6.1619000000 2.1891703125 -2.3592456560
2.8138662500 1.5173221875 -2.4368022320
5.5648315625 2.2355028125 -4.8252287440
3.9624096875 -1.3898943750 -6.4738368606
5.0180328125 -1.6186812500 -6.4505085212
2.8400425000 -0.1494921875 -6.4742903230
5.0344668750 -0.4448753125 -6.4750495628
6.1909115625 0.5624668750 -6.4705647062
-6.1357439063 6.5397893750 -5.6908173800
-5.6236179375 6.4019878125 -4.8177165840
-5.0527553125 6.3125881250 -5.6559894520
-4.5184400000 6.3259853125 -4.8513529280
-3.9283993750 6.2702868750 -5.6537073096
-3.3632584375 6.4193893750 -4.8257727280
-2.8143096875 6.4591778125 -5.6696836016
-6.1351553438 6.5407568750 -2.4247568720
-5.0721187500 6.3055468750 -2.4460499600
-3.9214253125 6.3078715625 -2.3799688560
-2.7453484375 6.4357965625 -2.4068442560
-3.8890678125 2.4212359375 -3.2166551040
-6.1996123438 2.5594809375 -6.4352189442
-5.6007970313 2.5188056250 -3.9859261920
-4.4429212500 2.3563731250 -4.0532247840
-2.8072012500 2.4981925000 -6.4187319549
-6.1661475938 3.7455553125 -6.4608447353
-6.1654286875 3.1444959375 -5.7122114936
-5.6186312813 3.0417662500 -4.8599660080
-5.5883592813 3.6046765625 -4.0571362880
-5.0568268750 3.0011984375 -5.6904909896
-4.5203212500 2.9278431250 -4.8406545760
-3.9226615625 3.4986815625 -6.4673408497
-4.4700918750 3.4931050000 -4.0398712720
-3.9607165625 2.9327881250 -5.6659922816
-3.4018509375 3.0022465625 -4.8525445120
-3.3264396875 3.5483062500 -4.0434589760
-2.8377043750 3.0656850000 -5.6223272040
-6.1952142500 4.3057378125 -5.6594748352
-5.6271116875 4.1681915625 -4.8565984880
-5.6389702813 4.7322843750 -4.0775745440
-5.0710571875 4.0938553125 -5.6362065672
-4.4662353125 4.0384928125 -4.8716228080
-3.9522106250 4.6723262500 -6.4619903397
-4.5317968750 4.5982453125 -4.0512690320
-3.9366903125 4.0817481250 -5.7113851560
-3.4056671875 4.1306203125 -4.8497727840
-2.8141350000 4.7353750000 -6.4719738838
-3.3681093750 4.6621137500 -3.9854858240
-2.8382150000 4.1564203125 -5.6801216184
-6.2066025313 5.9370906250 -6.4462216682
-6.1688135938 5.3909637500 -5.6377310176
-5.5942408750 5.3126500000 -4.8653151840
-5.6543683125 5.8378009375 -4.0068825280
-5.0252756250 5.1998690625 -5.6711925096
-4.4905975000 5.1576753125 -4.8285833120
-4.5065209375 5.7711643750 -4.0863300960
-3.9265987500 5.2330596875 -5.6512140496
-3.3698831250 5.2134678125 -4.8406157200
-3.3972150000 5.7840106250 -4.0949820320
-2.8244415625 5.3012818750 -5.6972752472
-6.2018429688 2.5295959375 -3.2507188640
-4.9964521875 2.4148396875 -3.2507577200
-3.3520650000 2.4006631250 -4.0868222720
-2.8342912500 2.4837203125 -3.1977710880
-6.1436572500 3.7065328125 -3.2264986240
-6.1810229063 3.1046403125 -2.4848800560
-5.0377590625 3.5528078125 -3.2357204480
-5.0961987500 2.9759090625 -2.4607634320
-3.9005300000 3.5052256250 -3.2484911200
-3.9766265625 2.9780993750 -2.3921307840
-2.7732850000 3.6074178125 -3.2178337360
-2.8050915625 3.0581600000 -2.3970395920
-6.1650967813 4.8425121875 -3.1672043680
-6.2230271875 4.2516250000 -2.4135922480
-5.1093675000 4.6585796875 -3.2274570720
-5.0290246875 4.0981284375 -2.4047460320
-3.9790318750 4.6770965625 -3.2825548800
-3.9437718750 4.1036243750 -2.4853204240
-2.7662975000 4.7431821875 -3.2679709280
-2.8830962500 4.1885762500 -2.4483683680
-6.2161646563 5.9818240625 -3.2329746240
-6.1588980625 5.4314643750 -2.4051086880
-5.0489793750 5.7512365625 -3.2576611360
-4.9965059375 5.2141396875 -2.4046942240
-3.9523046875 5.7826131250 -3.2553686320
-3.8819593750 5.2116940625 -2.4390170240
-2.8578068750 5.9219465625 -3.2884480400
-2.8277740625 5.3321746875 -2.5135816880
-2.2920075000 2.6001562500 -4.0479144640
-2.3143809375 4.2950012500 -4.8299950800
-2.3019915625 5.4461650000 -4.8591111760
-2.2433234375 5.9662096875 -3.9758754400
-6.6834361156 6.5808543750 -4.8655742240
-6.6989607281 3.2926309375 -4.8741743520
-6.7169475341 3.8098403125 -3.9779477600
-6.6951814313 4.8991109375 -4.0481864560
-5.0568940625 4.6448465625 -6.4715840804
-5.0836750000 5.7812962500 -6.4738421450
-2.8115818750 5.9082268750 -6.4381139753
-0.5909140625 2.3110081250 -5.6937678456
-2.2254918750 6.4771706250 -4.8568963840
-2.2179265625 3.1383281250 -4.9051684880
-2.2340246875 3.6976506250 -4.0935961680
-2.2035215625 4.8688765625 -4.0558928960
-1.7044393750 6.6024753125 -5.7201873352
-1.6803728125 6.5763796875 -2.4992697280
1.0587540625 2.5790593750 -4.8724387840
-1.7561603125 2.6738206250 -6.4535927810
-0.6496225000 3.9716950000 -6.4529657746
-1.1734431250 2.7655046875 -4.0440806720
-0.0351121875 2.3352493750 -4.8446049360
-0.0083581250 2.8885518750 -4.0239791680
0.5001706250 2.4652168750 -5.6815204344
1.6479212500 2.5942034375 -5.6410052832
1.7384765625 3.1651493750 -6.4644723444
1.0870937500 3.6704128125 -4.8329351840
-1.6362709375 3.2429659375 -5.6427758216
-1.0627450000 3.3137950000 -4.8665974320
-1.1619003125 3.8766918750 -4.0574730400
-0.5020115625 3.3957771875 -5.6897773344
-0.0511028125 4.0536503125 -4.0497277440
0.0111262500 3.4773831250 -4.8030160640
0.5316681250 3.6035075000 -5.6929233752
1.0939468750 4.2285796875 -4.0190962640
1.6118684375 3.7242165625 -5.6764018040
-1.7393903125 4.3676846875 -5.6180931952
-1.1322571875 4.4186262500 -4.8916854560
-1.1157021875 4.9994084375 -4.1133350160
-0.5565543750 4.5338796875 -5.6412021536
0.0266868750 4.6160903125 -4.8829558080
-0.0476762500 5.1564659375 -4.0694536400
0.5991109375 4.6917568750 -5.6740328832
1.1307118750 4.7974696875 -4.8236745040
1.0609846875 5.3488775000 -4.0167390000
1.6692196875 4.8523618750 -5.7061033304
-1.6825362500 5.9966321875 -6.4556513718
-1.7047887500 5.4331440625 -5.6804467136
-1.1856578125 5.6019325000 -4.8422476720
-1.0664268750 6.1585137500 -4.0469560160
-0.6079931250 5.6638928125 -5.6166114864
-0.0077668750 5.7400028125 -4.8769719840
0.0154531250 6.3126284375 -4.1124672320
0.5659740625 5.8380025000 -5.6485213288
1.1448078125 5.8867671875 -4.8845230000
1.6408531250 6.5575537500 -6.4342734482
1.0920118750 6.4430125000 -4.0527326080
1.7216662500 5.9754950000 -5.6793160040
-1.7251734375 2.6594290625 -3.2412380000
-0.5982912500 2.8612468750 -3.2657820400
-0.5373925000 2.3084146875 -2.4442107760
1.1387743750 3.1196768750 -4.0097060640
0.5372446875 2.4488231250 -2.4708012320
1.7088468750 3.1390671875 -3.2277808720
-1.7150953125 3.8062525000 -3.2194009280
-1.6536993750 3.2194503125 -2.4353127520
-0.6000515625 3.9651778125 -3.2393729120
-0.5611634375 3.4168740625 -2.4253397120
0.5111490625 4.1519859375 -3.2375596320
0.5620368750 3.5885246875 -2.4344190640
1.6491037500 4.2967078125 -3.2216027680
1.6566556250 3.7192312500 -2.4602712560
-1.6418475000 4.8840878125 -3.2275347840
-1.7170706250 4.3356631250 -2.3781555760
-0.5951871875 5.0853143750 -3.2200226240
-0.5620771875 4.5310846875 -2.4083078320
0.4951718750 5.2815959375 -3.2306173600
0.5492981250 4.7259015625 -2.4335383280
1.6353034375 5.4372021875 -3.2328451040
1.6728746875 4.8717790625 -2.4452469360
-1.6230081250 5.9981775000 -3.2614560720
-1.7775662500 5.4444584375 -2.4446770480
-0.5049140625 6.1630018750 -3.2227425440
-0.6106806250 5.6401756250 -2.3659418400
0.5313456250 6.4141353125 -3.2227036880
0.5572262500 5.8398837500 -2.4039300560
1.6286921875 6.5740818750 -3.2139999440
1.6628368750 5.9943612500 -2.4304428000
2.2281390625 2.6996878125 -4.8745888160
2.1920459375 3.8281959375 -4.8931231280
2.1976896875 4.9066762500 -4.8327409040
2.2351534375 6.0257109375 -4.8050495280
2.1871278125 6.5976243750 -4.0316856080
0.5489353125 3.0324809375 -3.2442687680
1.6296193750 2.5933434375 -2.4009640480
2.2331915625 4.3337684375 -4.0014944960
2.2185178125 5.4481268750 -4.0074135600
-1.6998706250 3.7908800000 -6.4351221928
-0.5688496875 5.1053093750 -6.4427290319
0.4759428125 5.2704831250 -6.4433113538
0.5598062500 6.4115821875 -6.4439482037
6.1613221875 6.6945625000 -5.6124098576
2.2409584375 3.2684300000 -4.0764736240
6.2033412500 6.7131331250 -2.4121027680
6.6882200000 2.7348806250 -4.0485102560
6.6621781250 4.3399900000 -4.8584376720
6.6874271875 5.4619809375 -4.8719077520
6.6524090625 6.0125018750 -4.0611125520
2.7882275000 2.6317343750 -5.6808650632
2.8113534375 3.2261959375 -6.4474348821
3.3610143750 2.5954396875 -4.8970734880