ITEM: TIMESTEP
174000
# source: voids-relax.174000.cfg
ITEM: NUMBER OF ATOMS
2298
ITEM: BOX BOUNDS pp pp pp
-6.7187500000 6.7187500000
-6.7187500000 6.7187500000
-6.4760000000 6.4760000000
ITEM: ATOMS x y z
-5.6051776563 -6.3802069688 -4.0420342560
-4.4882593750 -5.6325216250 -4.8265757520
-3.9170178125 -6.6523541031 -5.6677420968
-4.5132128125 -6.2502945625 -4.1130889280
-3.3872846875 -6.1350908438 -4.0383817920
-3.3420406250 -6.7106744522 -4.8439314320
-6.6956404563 -5.4393118750 -4.0712280640
-6.1607820000 -5.9347095000 -5.6815644712
-5.6054490938 -5.8204208750 -4.8768424640
-6.1480660938 -5.3514575000 -6.4510806110
-5.5549375313 -4.7464609375 -4.8443199920
-5.0164068750 -5.7958759375 -5.6660894216
-4.4574337500 -5.0921943750 -3.9915344080
-3.8589140625 -5.0253428125 -3.2251645680
-3.3312234375 -5.5699015313 -4.8243609600
-2.8144306250 -5.3626106250 -5.6671825704
-6.6746754031 -4.3135315625 -4.0642728400
-4.4789606250 -4.5338393750 -4.8391780480
-5.6141149375 -4.1546062500 -4.1010306160
-3.9141556250 -4.5288137500 -5.6812471472
-3.9119921875 -5.6024256563 -5.6031077312
-4.5022209375 -3.9796096875 -3.9833357920
-3.3988409375 -4.3519896875 -4.8415871200
-3.3528578125 -4.9645112500 -4.1236966160
-2.7966662500 -4.3143915625 -5.6054688808
-3.8847543750 -3.9283859375 -3.2770502800
-6.1513676875 -3.7124318750 -5.6548937128
-5.6071959688 -3.5694703125 -4.8542282720
-6.1454860938 -4.7941909375 -5.6325748264
-5.5515929375 -3.0082800000 -4.0432128880
-5.0297368750 -3.5246293750 -5.6334672192
-4.4443590625 -3.4534509375 -4.8536065760
-4.4870903125 -2.8600643750 -4.1055638160
-3.9021290625 -3.3486250000 -5.6907629816
-3.3474290625 -3.2414206250 -4.8698483840
-3.3969193750 -2.7315481250 -4.0253520800
-2.7762412500 -3.2255643750 -5.6932834408
-6.1510599688 -6.5118420625 -3.2165255840
-5.0326125000 -6.3317231250 -3.2332595680
-3.9704990625 -6.1240613438 -3.2667922960
-2.8353931250 -4.8244253125 -3.2121607600
-2.8282443750 -5.9573678125 -3.2786692800
-6.1788850000 -5.3218009375 -3.2116297280
-6.1542675000 -5.9228320938 -2.4771477120
-5.6054316250 -5.2922115625 -4.0093434080
-5.0344265625 -5.7876965313 -2.4217520080
-5.0438193750 -5.2082675000 -3.2296848160
-2.8017993750 -4.2685562500 -2.3960163840
-2.2785162500 -4.7837096875 -4.0427595680
-6.1269745938 -4.2471100000 -3.1759858240
-6.0914015000 -4.8006543750 -2.3460087120
-5.0948281250 -4.0881712500 -3.2362514800
-4.9527131250 -4.6464187500 -2.4213245920
-3.9945925000 -4.4332731250 -2.3987492560
-3.3258887500 -3.8129309375 -4.0379155200
-6.1078610938 -3.1398062500 -3.2208256480
-6.1823263438 -3.6751293750 -2.3844891040
-5.0126981250 -3.0152809375 -3.1736803680
-4.9659221875 -3.5571481250 -2.3574582800
-3.9764921875 -2.7919900000 -3.2353059840
-3.8627437500 -3.3375659375 -2.4647785520
-2.7594040625 -3.7078362500 -3.2129119760
-2.2928003125 -6.4086272813 -4.8524668000
-2.7743331250 -5.4225821875 -2.4435631760
-6.6846405188 -2.6787790625 -4.8315752240
-6.1688646563 -2.5413000000 -5.7107505080
-5.6252277500 -2.4614678125 -4.8818030800
-5.0257190625 -2.4273231250 -5.6646349120
-4.4854643750 -2.2694325000 -4.8545909280
-6.1493655000 -2.5290450000 -2.4825746000
-5.0766606250 -2.4102978125 -2.4215706800
-3.8946040625 -2.2506603125 -2.3557874720
-2.7998643750 -2.5644931250 -3.2606012400
-2.8181125000 -6.5243228125 -5.7154741024
-2.8232590625 -6.5213329688 -2.4966016160
-3.9395525000 -5.5731399688 -2.4158588480
-2.8309050000 -3.1247428125 -2.4403899360
-5.0219968750 -4.6323362500 -5.6898343232
-6.1487755938 -3.1375353125 -6.4373364667
-2.2598112500 -3.0552440625 -4.8435169680
-6.6805326750 -3.2293134375 -3.9935290160
-6.7162677713 -6.5263196250 -4.0047972560
-3.8974259375 -2.2466828125 -5.6213467376
-3.8890275000 -6.6423474656 -2.4102894880
-6.1559310625 -6.5125448438 -6.4414291692
-2.8128584375 -5.9353450938 -6.4490661865
-5.0418440625 -5.2218528125 -6.4436358014
-3.9111590625 -3.9424146875 -6.4377903048
-2.7909418750 -2.6357521875 -6.4445384263
-2.2264862500 -2.5177306250 -4.0362447120
-2.2156421875 -5.3485146875 -4.8645121600
-2.2013715625 -4.2282840625 -4.8583211040
-2.2395743750 -3.6521378125 -4.0873274000
-2.2021240625 -5.8685916250 -3.9831933200
-1.7141546875 -4.6674887500 -3.2372617360
-1.1593875000 -6.2890321875 -4.8533086800
-1.7059712500 -6.4093072188 -5.6541502680
-1.1312359375 -5.1609943750 -4.8766481840
-1.0862471875 -5.7218151563 -4.0631330640
-0.5666996875 -5.7373905625 -6.4576343230
0.0367112500 -6.3033149063 -4.9023449520
0.0108440625 -5.1862971875 -4.8318342640
-0.0341446875 -5.7687859375 -4.0467876400
1.1642384375 -6.4547447813 -4.8331035600
0.6125484375 -6.3377659688 -5.6612039272
1.1015659375 -5.9136435313 -3.9965338800
1.6984328125 -6.5192931563 -5.7214838304
-1.6701603125 -5.8442603438 -6.4491659169
-1.6847265625 -5.2560512500 -5.7114810008
-0.5563259375 -4.6219356250 -6.4749329909
-0.5679359375 -4.0270978125 -5.7176759424
-1.1393656250 -4.6495093750 -3.9820924000
-0.5456968750 -5.1684253125 -5.6552460072
0.0335400000 -4.6230375000 -4.0465415520
0.5553315625 -5.2143278125 -5.6890118712
1.0916893750 -5.3427903125 -4.7992081760
1.1655687500 -4.7460309375 -4.0686376640
-1.6592893750 -4.0849059375 -5.6855329640
-1.0967015625 -4.1157718750 -4.8450194000
-1.1250412500 -3.5327859375 -4.0493003280
-0.0449753125 -4.0508015625 -4.8277802880
1.1143315625 -3.6463865625 -4.0622652800
0.0502159375 -3.4784581250 -4.0325145360
0.5102890625 -4.1302440625 -5.6390262176
1.6335431250 -3.7459584375 -6.4437504266
1.1771653125 -3.0737743750 -4.8696282000
1.1057450000 -4.1880925000 -4.8970993920
-1.6720012500 -3.0204543750 -5.6236884592
-1.1028425000 -2.9843209375 -4.8422865280
-1.1141703125 -2.3823746875 -4.0967046480
-0.5564200000 -2.9026478125 -5.6423017784
0.5227321875 -2.4163850000 -6.4275465680
0.0365365625 -2.9505121875 -4.8790313520
0.5943540625 -2.9910128125 -5.6583156312
1.0806168750 -2.5439740625 -3.9950703040
1.6876425000 -2.6078559375 -3.2965171360
1.7276728125 -3.1579334375 -5.6868152120
-1.6316081250 -5.8290262500 -3.2154505680
-0.5604646875 -5.7296344375 -3.1771126480
-0.5428481250 -6.3051330000 -2.3923898240
0.5367475000 -5.7516343125 -3.2395801440
0.5955768750 -6.3426290000 -2.4595718480
1.7197312500 -5.9558010000 -3.2904037920
1.6690987500 -6.5038736250 -2.4515545600
-1.7136843750 -5.2343362500 -2.4524612000
-0.5159865625 -4.6086325000 -3.2671549520
-0.5897046875 -5.1274812500 -2.4272954640
0.6169290625 -4.6832509375 -3.2474679120
0.5327296875 -5.2236265625 -2.3907837760
1.6858553125 -4.8578040625 -3.1672432240
1.6254671875 -5.4471849063 -2.3996558960
-1.6987821875 -3.5265643750 -3.2373005920
-1.6331534375 -4.0975237500 -2.4440035440
-0.5511793750 -3.4811859375 -3.2822310800
-0.5831606250 -4.0362353125 -2.4572275360
0.5850821875 -3.5823568750 -3.1843657680
0.4956421875 -4.1415315625 -2.3968194080
1.6539278125 -3.7202659375 -3.1853630720
1.7096800000 -4.2866834375 -2.3943067200
-1.6738287500 -2.9758284375 -2.4035155920
-0.0543412500 -2.3877228125 -4.0498313600
-0.5223290625 -2.9735843750 -2.4075695680
0.5064459375 -2.4058768750 -3.2207220320
0.6041096875 -2.9788115625 -2.4489641600
2.2002696875 -6.6264416313 -4.7837823440
1.6129300000 -5.4049521875 -5.6638953528
2.1959696875 -5.5079022500 -4.8920092560
-1.6284503125 -2.4537278125 -3.2410825760
-0.5818975000 -2.3799021875 -3.1821509760
1.7414059375 -3.1326440625 -2.4269975680
-0.5740500000 -6.2910787188 -5.6182369624
-1.7301050000 -6.3743441875 -2.3953687840
1.7001259375 -4.2895993750 -5.6081784392
0.5870843750 -3.5628456250 -6.4433226221
2.1827606250 -3.8614403125 -4.0250541840
2.2199287500 -4.9435487500 -4.0782350960
-1.7020878125 -4.6640621875 -6.4430929831
1.7330881250 -4.8431975000 -6.4460462982
-0.5221006250 -3.4401343750 -6.4740016359
-0.5699112500 -2.3518178125 -6.4759836585
6.7108487500 -5.9992041250 -4.8781247120
2.2532268750 -3.2784409375 -4.7889242880
2.2924778125 -2.6948637500 -4.0284994160
6.1270834375 -6.0346939063 -5.6491197112
6.1339096875 -4.9310787500 -5.6666256344
6.7031490625 -4.8608678125 -4.8778786240
6.6790287500 -3.7458643750 -4.8740189280
2.3077696875 -6.0384335625 -4.0346645680
3.8966734375 -6.3168625938 -6.4226929355
3.3760912500 -6.2157548125 -4.0846851920
4.4080106250 -6.4351220000 -4.0616824400
5.5544040625 -6.5717262813 -4.0452463520
3.4107868750 -4.5540628125 -4.7930818800
2.8667696875 -6.1255099063 -6.4561542980
2.7886037500 -5.5874200000 -5.6069842648
3.2878337500 -5.1357990625 -4.0286418880
3.9811818750 -5.7359648438 -5.6559544816
4.5180368750 -5.8490494688 -4.8159292080
4.9956056250 -4.8214018750 -5.6604721392
4.4760178125 -5.2848746875 -4.0099132960
5.0612612500 -5.9216576563 -5.6893822984
5.5893281250 -5.9919115938 -4.8022000880
5.6520409375 -5.3958684375 -4.0482382640
2.3122712500 -4.3849250000 -4.8899110320
2.7790093750 -3.8969153125 -3.2821274640
3.3709984375 -3.9758068750 -4.0248599040
3.3975643750 -5.6544798438 -4.9060880800
3.3351606250 -3.3951590625 -4.8187397920
3.9377921875 -4.6147734375 -5.6902785768
4.4643675000 -4.7160115625 -4.7985476240
4.5313668750 -4.1319775000 -4.0415032240
5.0722800000 -4.2531568750 -6.4601837947
5.5645896875 -4.8543237500 -4.8693950640
5.6520678125 -4.3112740625 -4.0064421600
3.8810187500 -3.5314421875 -5.6364992824
3.9387865625 -2.9693515625 -6.4275760986
3.3623984375 -2.2469381250 -4.8748996640
4.4943465625 -3.0248081250 -4.0466581200
4.4845909375 -2.4483796875 -4.8738635040
5.0698746875 -2.5668984375 -5.6506869032
5.5882262500 -3.7867681250 -4.8692007840
6.1477100000 -3.7426125000 -5.6946187920
5.6144293750 -3.2196115625 -4.0498054560
6.1760362500 -4.3423012500 -6.4128249362
2.8441140625 -6.1744049375 -3.1899351280
3.8967137500 -6.3143914375 -3.1716469040
4.9755568750 -6.4847816250 -3.2637874320
6.1154868750 -6.5735833438 -3.2710794080
2.8054946875 -5.5889935313 -2.4293936880
3.8763828125 -5.1864046875 -3.2792262160
3.9874168750 -5.7216982500 -2.4267644320
5.0648625000 -5.4090573438 -3.2710923600
5.0634246875 -5.9397163125 -2.4056138160
6.1784953125 -5.4695260938 -3.2087932400
6.1600456250 -6.0379430938 -2.4227104560
2.8939537500 -4.4353559375 -2.4210007920
2.7449050000 -4.9979706250 -3.1828892400
3.9437046875 -4.0858465625 -3.2627642240
3.9621678125 -4.6538496875 -2.4452857920
5.0691490625 -4.2717678125 -3.2211364960
5.0510487500 -4.8427675000 -2.4564115600
6.2294100000 -4.3617318750 -3.2141683200
6.1627196875 -4.9010459375 -2.3950579360
3.4221684375 -2.8216465625 -4.0589754720
2.8503221875 -2.8172659375 -3.2449552240
6.1620612500 -3.2052468750 -3.2261489200
3.9073831250 -3.5300043750 -2.4429285280
3.9481793750 -2.9536431250 -3.2005687200
5.0265521875 -3.6863496875 -2.4340305040
5.0558459375 -3.1179300000 -3.2381165680
6.1190075000 -3.7766093750 -2.4514638960
4.4667593750 -3.5685700000 -4.8618310960
3.9133225000 -2.3846053125 -5.6718608328
5.6213900000 -2.6641053125 -4.8248401840
6.1745446875 -2.6138490625 -5.6401387944
2.8014634375 -3.3771259375 -2.4146154560
3.9044806250 -2.3706168750 -2.4237854720
5.0444643750 -2.5809003125 -2.3913795680
6.2279721875 -2.6332528125 -2.4277746880
2.7753006250 -2.2607653125 -2.4354681760
2.7635696875 -5.0258668750 -6.4190714268
2.8771165625 -4.4384734375 -5.6671553712
2.7873540625 -3.3234162500 -5.6679169488
5.0174415625 -3.6920606250 -5.6600822840
2.7488287500 -2.2593812500 -5.6213791176
2.7283768750 -6.7025009719 -5.6804518944
5.0480118750 -3.1173790625 -6.4516524418
6.1628137500 -3.1682400000 -6.4750216461
-6.1106386250 -1.9680965625 -6.4737859851
-6.7184118144 -2.1238909375 -4.0337838320
-5.0031843750 -1.8249065625 -6.4221828858
-5.5184789063 -1.9510443750 -3.9593616400
-4.3783540625 -1.7196909375 -4.0170757520
-3.3403475000 -2.1432946875 -4.8362897520
-3.2866243750 -1.5675112500 -3.9907572880
-6.6532124906 -1.5382846875 -4.7968120560
-6.7079267388 -0.9313128125 -4.0841153040
-6.1349685625 -1.3921115625 -5.6646595208
-5.5517165625 -1.4246840625 -4.8278450480
-5.6012539063 -0.8427865625 -4.0659436480
-5.0333515625 -1.2332668750 -5.6863631872
-4.4781140625 -1.1751228125 -4.8376626640
-3.8587528125 -0.5438425000 -6.4336805057
-4.4280325000 -0.6399071875 -3.9729353360
-3.9324306250 -1.1212921875 -5.6711536536
-3.3874056250 -1.0265578125 -4.8675947360
-2.7669559375 -0.4239934375 -6.4484101677
-3.3004650000 -0.4467834375 -4.0431092720
-2.7733253125 -0.9448846875 -5.5724283288
-6.1803617813 0.1849940625 -6.4461927853
-6.1074821563 -0.3605550000 -5.6083377488
-5.5473534063 -0.2477337500 -4.8038838480
-5.6396220000 0.3319465625 -4.0756576480
-5.0128056250 -0.1336090625 -5.6658044776
-4.4580384375 -0.0965215625 -4.8105282240
-4.4951796875 0.4935996875 -4.0459457600
-3.9479375000 0.0433493750 -5.7028290648
-3.3986528125 0.0810684375 -4.8709622560
-2.7366275000 0.7389684375 -6.4396013830
-3.3290734375 0.6078050000 -3.9682596640
-2.8262287500 0.1568156250 -5.6698558632
-6.7045896969 0.7368721875 -4.9078366000
-6.7079314822 1.2601418750 -4.0467746880
-6.1065885625 0.7565715625 -5.6570618776
-5.5615151875 0.9150131250 -4.8578159760
-5.5760223125 1.4507662500 -4.0257924480
-4.9622000000 0.9271471875 -5.6268383856
-4.4158178125 1.0669778125 -4.8057489360
-4.4699440625 1.6625412500 -4.0461141360
-3.8705240625 1.1451840625 -5.6621584896
-3.3223546875 1.1567940625 -4.7971229040
-2.8195771875 1.3294525000 -5.7206289984
-6.1431627500 -1.9555325000 -3.2814151040
-4.9054937500 -1.8535553125 -3.2289595040
-3.7425856250 -1.6785990625 -3.1904661600
-2.7699928125 -1.9621975000 -2.6001528560
-6.1610413438 -0.8629159375 -3.2316017120
-6.1030262813 -1.4459287500 -2.4107946160
-5.0549590625 -0.6703968750 -3.2595132720
-5.0138134375 -1.2657587500 -2.4883382400
-3.8560384375 -0.5472690625 -3.2238046080
-3.9587950000 -1.1038637500 -2.4278783040
-2.7451334375 -0.5127481250 -3.1924737200
-2.7831078125 -1.0221906250 -2.4768886720
-6.1807864063 0.1983375000 -3.2288040800
-6.1567776250 -0.3449943750 -2.3765754320
-5.0682218750 0.3993087500 -3.2521047280
-5.0034934375 -0.1478259375 -2.4049403120
-3.9448468750 0.6168350000 -3.2399816560
-3.9206996875 0.0547443750 -2.4685864400
-6.1432285938 1.3429168750 -3.2337258400
-6.0991562813 0.7696731250 -2.4283963840
-5.0075515625 1.5123637500 -3.2302288000
-5.0377321875 0.9445487500 -2.4065722640
-2.7961421875 1.9060018750 -3.2560162320
-3.9010943750 1.2086090625 -2.4125690400
-2.7452946875 0.7237975000 -3.2278067760
-2.7952821875 1.3413715625 -2.4742982720
-2.7878378125 -2.0646315625 -5.6715409184
-2.3609821875 -1.4222250000 -3.9182519920
-6.7032419156 1.8421737500 -4.8226253920
-6.1617763750 1.9270046875 -5.6786878320
-5.5982882500 1.9999703125 -4.8607560800
-5.0279496875 2.0473643750 -5.6545854552
-4.4579443750 2.1949081250 -4.8835127440
-3.3619281250 1.7509196875 -4.0325145360
-6.1363687500 1.8825937500 -2.4010547120
-4.9994890625 2.0526318750 -2.4288626560
-3.9079878125 1.7307231250 -3.2191936960
-2.8326787500 0.1694065625 -2.4872632240
-2.2414153125 -0.2638318750 -4.1100581600
-2.2587362500 0.2842703125 -4.8942370000
-2.2760168750 1.3567978125 -4.8664938160
-3.8507978125 2.2122156250 -5.6097987344
-3.8915000000 -1.6978415625 -6.4568840137
-2.8084375000 -1.4853275000 -6.4541469970
-6.1183463750 1.3336181250 -6.4252350246
-5.0288365625 1.4687053125 -6.4475001602
-2.2378140625 -1.9437881250 -4.8344376160
1.7054875000 -1.5008881250 -3.2274829760
-1.6151068750 0.9001378125 -3.1996361760
-1.6916065625 -1.9363975000 -5.6779599296
-1.1488659375 -1.2841412500 -4.0116877200
-0.5527784375 -1.8055834375 -5.6095073144
-0.5830262500 -1.2535978125 -3.2289206480
-1.1541468750 -1.7946856250 -4.8557566080
0.0365231250 -1.8292334375 -4.8590982240
-0.0265525000 -1.2899596875 -4.0364778480
0.5919353125 -1.8355893750 -5.6896089584
1.1119396875 -1.9906312500 -4.8005163280
1.1423621875 -1.3934553125 -4.0409592400
1.6604181250 -2.0444350000 -5.6673030240
-2.1782187500 -0.8813521875 -4.8299691760
-1.6951271875 -0.1775228125 -6.4691422009
-1.6468731250 -0.7560475000 -5.6817665224
-1.0814365625 -0.7029828125 -4.8411467520
-0.5482500000 -0.1157909375 -3.3002991200
-0.5405637500 -0.6758121875 -5.7048055400
-0.0219300000 -0.7043668750 -4.8221073120
0.5501043750 -0.7462784375 -5.6411283272
0.0545696875 -0.1538459375 -4.0248340000
1.1145465625 -0.8399243750 -4.8390096720
1.7038750000 -0.4324456250 -6.4480653854
1.1633918750 -0.2699728125 -4.0710596880
1.6840950000 -0.9686556250 -5.6186941680
-1.6339731250 0.8987000000 -6.4494180923
-2.1786890625 0.8245384375 -4.0239791680
-1.6459190625 0.3420515625 -5.6148292912
-1.1584200000 -0.1676193750 -4.0138118480
-1.0741534375 0.3972796875 -4.8300857440
-0.5293031250 0.4575334375 -5.6562368352
0.0361200000 0.4153396875 -4.8351240720
0.5627625000 0.8701856250 -6.4617755955
-0.0009540625 0.9957859375 -4.0690132720
0.5869768750 0.3331693750 -5.6296411984
1.1842065625 0.3032709375 -4.8560804080
1.7139800000 0.1539803125 -5.6904301152
1.1404943750 0.8448290625 -4.0239273600
-1.6367278125 2.0112175000 -6.4616934798
-2.1940078125 1.8958162500 -4.0086569520
-1.6968337500 1.4658296875 -5.6557874008
-1.1044281250 0.9970490625 -4.0981423200
-0.5452534375 2.0810253125 -6.4559049720
-1.1326200000 1.5764471875 -4.8785391760
-0.5368281250 1.5274675000 -5.6153344192
0.0449215625 1.5669334375 -4.8494619360
0.5820050000 2.0626562500 -6.4409959248
0.0140153125 2.1331225000 -4.0506473360
0.5728406250 1.4619193750 -5.7110212048
1.1173818750 1.3915875000 -4.8552126240
1.6844175000 1.3287940625 -5.6765054200
1.7143562500 0.7501350000 -6.4335390698
-1.7536609375 -1.3300437500 -3.2755478480
-0.5445412500 -0.6627509375 -2.4548702720
0.5612978125 -1.3109356250 -3.2665591600
0.5992721875 -1.8495643750 -2.4179829760
1.6527856250 -0.9385825000 -2.4173224240
-1.5966034375 -0.7814981250 -2.4083596400
-0.5235384375 0.3984218750 -2.4156516160
-0.5535846875 0.9673790625 -3.2380777120
0.6199793750 -0.1994796875 -3.2268612800
1.7151893750 -0.3882496875 -3.2203852800
-1.6970084375 1.4810275000 -2.4467752720
-1.7071403125 -0.2091681250 -3.2167975760
-0.5103293750 2.0677625000 -3.2070188160
-1.6488081250 0.3230643750 -2.4081783120
-0.5359278125 1.5164621875 -2.3977778560
0.5658128125 0.9363787500 -3.2572855280
1.7073553125 0.7149287500 -3.2378057200
1.6883009375 0.1751175000 -2.3970007360
-1.6265153125 2.0401887500 -3.2297236720
0.5881325000 2.0206371875 -3.2422741600
1.1548859375 1.9636487500 -4.0428502320
1.7170168750 1.2810103125 -2.4561395680
2.2018553125 -2.1262290625 -4.8140252640
2.2389025000 1.1999553125 -4.8906492960
1.7043856250 1.8830506250 -3.1932896960
-1.7274712500 -1.8703387500 -2.4303391840
-0.5734587500 -1.7970506250 -2.4122840960
1.6727671875 -2.0695631250 -2.4361934880
0.5260915625 -0.7526881250 -2.4414779040
0.5583012500 0.3864221875 -2.4504406880
0.6061387500 1.4666493750 -2.3973892960
-1.0695443750 2.1086125000 -4.0289656880
-0.5584087500 -1.2762265625 -6.4610768351
2.2261906250 1.7263021875 -4.0440029600
-1.6788678125 -1.3376359375 -6.4267706137
-0.5255675000 -0.0962528125 -6.4606207952
6.7023562500 -0.3628259375 -4.8662736320
2.2868878125 0.1020309375 -4.8594349760
2.2618940625 -1.5543962500 -4.0516187360
6.6991581250 0.1867006250 -4.0433165040
2.8229365625 -1.7247434375 -6.4585416106
2.8123881250 -1.6825765625 -3.2055163840
3.4126815625 -0.0941700000 -4.8939909120
3.9434628125 -1.7867575000 -6.4020540530
4.5093831250 -1.9085953125 -4.0534320160
5.5869765625 -2.0602375000 -4.0877807200
2.2831387500 -0.9901153125 -4.8633723840
2.8666353125 -0.5458850000 -6.4142900665
2.8329609375 -0.5759043750 -3.2184036240
2.8125493750 -1.1438671875 -5.6936176024
3.9509340625 -0.7187450000 -3.1992476160
3.3648171875 -1.1829971875 -4.8477004640
3.9389478125 -1.2090928125 -5.6644820784
4.5000709375 -1.3185009375 -4.8584247200
5.0979725000 -1.4794553125 -5.6375846600
5.6698725000 -1.4836075000 -4.8382196000
6.1339768750 -1.0134025000 -6.4311147145
5.6028596875 -0.9449115625 -3.9980233600
6.2330650000 -1.5741090625 -5.6399859608
2.2724559375 -0.4527228125 -4.0310380080
2.8304078125 0.6155181250 -6.4571026434
2.2828431250 0.6585987500 -4.0309343920
2.8391825000 0.0300328125 -5.6759122184
3.3875668750 -0.6291168750 -4.0202230880
3.8958403125 0.3626109375 -6.4731879913
3.3537715625 0.4569690625 -4.0244324880
4.0547521875 -0.1472884375 -5.5018477000
4.4800221875 -0.7713662500 -4.1547037040
4.4866200000 0.1287850000 -4.2583456080
6.1567265625 -0.4483287500 -5.6516311040
5.5420953125 -0.3923212500 -4.8669341840
5.6294928125 0.1631446875 -4.0356748240
6.1833193750 0.1276965625 -6.3942403705
2.8554956250 1.1504650000 -5.6141583776
3.4028318750 1.0320134375 -4.8419368240
3.3603425000 1.5763800000 -4.0534320160
3.9625306250 0.9498700000 -5.7003617088
4.4908528125 0.8289996875 -4.7796636080
5.0131684375 0.7576600000 -5.6985833992
4.5419421875 1.4265384375 -4.0547272160
4.9778546875 -0.3354537500 -5.5618698584
5.5717115625 0.7194840625 -4.8639422720
6.1929943750 1.2633131250 -3.1889119200
6.1354415625 0.7231793750 -5.6431592008
3.3744653125 -1.7325640625 -4.0166483360
5.0511696875 -2.0291834375 -3.2115908720
6.1336275000 -2.0953362500 -3.2516773120
2.8232456250 -0.0255715625 -2.4230342560
2.7964915625 -1.1327140625 -2.4000185520
3.9582037500 -1.8133771875 -3.2452272160
3.9346881250 -1.2841278125 -2.4042020480
5.0082234375 -0.8973025000 -3.2363421440
5.1167581250 -1.4535209375 -2.4438610720
6.1898231250 -1.0160631250 -3.2590599520
6.2228793750 -1.5312165625 -2.4017541200
2.8258390625 1.7369446875 -3.2589563360
2.8280428125 0.5612709375 -3.1852594560
3.9777956250 0.4288443750 -3.3009208160
3.9458009375 -0.1174437500 -2.4666565920
5.0010343750 0.2319043750 -3.2998846560
5.0833256250 -0.3215862500 -2.4480575200
6.1345412500 0.1117865625 -3.1996620800
6.1549125000 -0.4651121875 -2.4243553600
3.9680400000 1.4862815625 -3.3015554640
3.9356556250 0.9647318750 -2.4108205200
5.6539625000 1.2828915625 -4.0623948000
5.0493959375 1.8361671875 -2.4733268720
6.2068081250 0.6739040625 -2.4405324080
3.3634734375 2.1761762500 -4.8112017280
3.8958000000 2.0643628125 -5.6762761696
4.4615590625 1.9606387500 -4.8890691520
5.0540050000 1.8668853125 -5.6313961944
5.6275712500 1.8413675000 -4.8855462080
6.2058137500 1.8477503125 -5.6831912424
3.9162518750 2.0043375000 -2.4133461600
5.0941696875 1.2418534375 -3.2404479280
6.1656356250 1.8601531250 -2.4372166960
2.8510343750 1.1567134375 -2.4824709840
5.0382025000 0.7319271875 -2.3639990400
5.0485628125 -0.8939968750 -6.4493805315
5.0399762500 -1.9850278125 -6.4594183315
6.1856575000 1.2647106250 -6.4663594896
5.0955671875 1.3269665625 -6.4721749506
-5.6173896563 6.5008609375 -4.8448639760
-5.0272778125 6.5641112500 -5.6000329264
-4.4336090625 6.5915909375 -4.8259929120
-3.3537043750 6.1926181250 -3.9751760320
-5.0379203125 6.5574193750 -2.3629110720
-6.1626807188 6.3396109375 -5.6744473472
-3.9245696875 2.8743081250 -3.1358734800
-6.1114166563 2.4466328125 -3.2149842960
-4.9790103125 2.6206753125 -6.4206387483
-5.5462878125 2.5729050000 -4.0602447680
-3.9147468750 2.7709871875 -6.4349312803
-4.4544371875 2.7395031250 -4.0343407680
-3.2883578125 2.3187212500 -4.8273010640
-2.7396778125 2.4358962500 -5.6589800688
-6.1697286875 3.0393071875 -5.6804337616
-6.6474285875 3.5254087500 -4.0283439920
-5.6185452813 3.1132806250 -4.8713378640
-5.5408510000 3.6697946875 -4.0227228240
-5.0448406250 3.2105278125 -5.6668302760
-4.4956096875 3.3007203125 -4.8607042720
-3.8608759375 3.8782237500 -6.4503063405
-4.4152400000 3.8577046875 -4.0346645680
-3.8945771875 3.3309681250 -5.6073728248
-3.3207287500 3.4724918750 -4.8326761440
-3.3914771875 4.0301884375 -4.0351308400
-2.7546875000 3.5083162500 -5.6274264064
-6.7050226531 4.0538518750 -4.8630097280
-6.1305919688 5.2673253125 -5.6556242056
-6.1506434063 3.6208015625 -6.4710002172
-6.1466215625 4.1826771875 -5.6522152392
-5.6318591563 4.7599521875 -4.0242123040
-5.5817386250 4.2149809375 -4.8423124320
-4.5264890625 4.4131840625 -4.8575828400
-3.9648418750 5.6110431250 -5.7144729128
-4.4281534375 4.9218875000 -3.9450237760
-5.0623631250 4.3533603125 -5.7235367224
-3.3928881250 4.5814753125 -4.8686308960
-2.7655315625 5.1908525000 -6.4525390062
-3.3248943750 5.1365246875 -4.0354028320
-2.8125493750 4.6320675000 -5.6296658072
-6.6819758625 5.2234384375 -4.8201904160
-5.5766552188 5.3273909375 -4.8173150720
-5.5841735000 5.9235859375 -4.0772636960
-5.0494496875 5.5078431250 -5.6684518664
-4.4834218750 5.4543081250 -4.8324948160
-4.4792965625 6.0176753125 -4.0274244000
-3.9284800000 6.2099793750 -6.4442709675
-3.4150331250 5.6689721875 -4.8807151120
-2.7597265625 6.3055334375 -3.2323399760
-2.8280293750 5.7546228125 -5.6558767696
-6.1613450313 3.0188150000 -2.4383305680
-5.0490331250 2.6379559375 -3.2091040880
-3.9000462500 2.3733715625 -2.4145118400
-3.4077634375 2.8804490625 -4.0626926960
-2.7956450000 2.9814318750 -3.2719601440
-6.1123599688 3.5996106250 -3.2109821280
-4.9916415625 3.7471140625 -3.2238693680
-4.9540031250 3.2100306250 -2.3769510400
-3.8849828125 3.8071259375 -3.0745069040
-2.9105356250 3.5177628125 -2.4061318960
-2.7894503125 4.0721671875 -3.2618316800
-6.2236318750 4.7307256250 -3.2504339200
-6.1012001250 4.1773425000 -2.4400013760
-5.0529300000 4.8913037500 -3.2688905200
-5.0446928125 4.3479315625 -2.4531476560
-3.8461887500 5.0026871875 -3.1839642560
-3.9436240625 4.3998003125 -2.4248993440
-2.7715918750 5.1579843750 -3.1730068640
-2.7653300000 4.6256175000 -2.3813029120
-6.1862044063 6.3524303125 -2.4382917120
-6.1411632500 5.7967359375 -3.2550707360
-5.0614493750 6.0423600000 -3.2241413600
-5.0130878125 5.4409915625 -2.4436797440
-3.9444034375 6.2128415625 -3.2194268320
-3.9571421875 5.6051171875 -2.4765389680
-2.8388600000 5.7818875000 -2.4193040800
-2.2601875000 3.0369690625 -4.0715648160
-2.2629421875 4.1938034375 -4.0679123520
-2.7891143750 2.4514300000 -2.4083855440
-6.1193259688 5.2701875000 -2.3792953520
-5.0458753125 4.9378781250 -6.4675313866
-3.9646806250 4.4428003125 -5.6637917368
-2.2591528125 5.3242062500 -4.0715518640
-2.2699565625 5.9019246875 -4.8486977680
-6.6635706531 2.4149740625 -4.0197179600
-5.0010209375 3.7541284375 -6.4611735866
-2.7847337500 4.0740618750 -6.4384885471
-3.8756168750 5.0160709375 -6.4427143962
-2.7846396875 6.3125478125 -6.4473986165
-2.2129815625 6.4661653125 -4.0467876400
-2.1918846875 2.4592640625 -4.8180533360
-2.1907290625 3.6265528125 -4.8319637840
-2.2334334375 4.7625053125 -4.8576087440
-1.6579053125 6.5005250000 -3.2067986320
1.1411662500 2.4858837500 -4.8900535040
-1.6758175000 2.6252306250 -5.7087287008
-1.1214265625 2.6722081250 -4.8629320160
-1.1183359375 3.1975203125 -3.9952904880
-0.5731765625 2.6633662500 -5.6993113016
-0.0189603125 2.6755271875 -4.8790702080
0.0118518750 3.2136856250 -4.0180342000
0.5696021875 2.6255531250 -5.6490057336
1.7390275000 2.4375356250 -5.6308716384
1.1464606250 3.6306915625 -4.8142713520
-1.7070328125 4.2966271875 -6.4654216353
-1.6420759375 3.7270653125 -5.6727273216
-1.0797165625 3.7442921875 -4.8413410320
-1.1479790625 4.3088687500 -4.0341594400
-0.5139575000 3.2609721875 -6.4414589588
-0.5528053125 3.8378709375 -5.6912551576
-0.0297909375 4.2994490625 -4.0169332800
0.0108978125 3.7608875000 -4.8630356320
0.5814943750 3.7357190625 -5.6377711688
1.7191534375 4.0941778125 -6.4696953161
1.1343803125 4.1944350000 -4.0392236720
1.6792306250 3.5268331250 -5.6873669672
-1.6572065625 4.8410475000 -5.6346406704
-1.0885315625 4.8676268750 -4.8465865920
-1.1089162500 5.9946971875 -4.8371704880
-0.5247209375 4.9296275000 -5.6541088216
0.0209356250 4.8825425000 -4.8021353280
0.5754609375 5.3885584375 -6.4745494408
0.0161518750 5.4645609375 -4.0508804720
0.5338450000 4.8271128125 -5.6919623368
1.0905203125 4.7687000000 -4.8366394560
1.6842831250 5.2239356250 -6.4322055319
1.1573315625 5.3453434375 -4.0659954560
1.6364725000 4.6474668750 -5.6496701712
-1.6915662500 5.9525840625 -5.6230952576
-1.1221925000 6.5829775000 -4.0786366080
-0.5629103125 6.0138053125 -5.6680516496
-0.0044746875 6.0258453125 -4.8531791600
0.5317218750 6.5295903125 -6.4356268027
-0.0107500000 6.6008359375 -4.0565145920
0.5578309375 5.9426134375 -5.6587430472
1.1375381250 5.8907581250 -4.9067615840
1.0644112500 6.4166615625 -4.0296521440
1.7326043750 5.7894662500 -5.6447846768
-1.7114403125 3.1733865625 -3.2325860640
-1.6827109375 2.6147896875 -2.4367763280
-0.5571725000 3.2367846875 -3.2061510320
-0.5533831250 2.6563250000 -2.4380456240
1.0975078125 3.0402343750 -4.0621487120
0.5789278125 2.5717359375 -2.4357142640
1.6880590625 3.0262459375 -3.2634506800
-1.6928696875 4.2754900000 -3.2293351120
-1.7327118750 3.7207631250 -2.4021815360
-0.5739021875 4.3939146875 -3.2103992880
-0.5680837500 3.8151212500 -2.4495210960
0.5704487500 4.3155337500 -3.2652769120
0.5713893750 3.7496671875 -2.4610224720
1.7147862500 4.0831053125 -3.2687221440
1.6786796875 3.5622543750 -2.3876882480
-1.1436521875 5.4312762500 -4.0437050640
-1.7034046875 5.3972256250 -3.2485947360
-0.5548881250 5.5118475000 -3.2758457440
-0.5426331250 4.9845600000 -2.4405971680
0.5762671875 5.3853334375 -3.2494625200
0.5488681250 4.8324071875 -2.3944362400
1.6626084375 5.1946418750 -3.1767111360
1.6739631250 4.6133759375 -2.4008215760
-1.6701737500 5.9319843750 -2.4000833120
-0.5776646875 6.5945337500 -3.2382978960
-0.5692931250 6.0402771875 -2.3941383440
0.5178275000 6.5101328125 -3.1902071200
0.5594434375 5.9262465625 -2.4168172960
1.6548012500 6.3655318750 -3.2470923040
1.7139128125 5.7923821875 -2.4610613280
2.2230193750 3.4635828125 -4.8187268400
2.2394803125 4.5882881250 -4.9121625680
2.2024062500 5.1301418750 -4.0557374720
0.5772615625 3.1680384375 -3.1979006080
1.7130259375 2.4713981250 -2.4549220800
-1.6344568750 4.8443396875 -2.4224514160
-0.5499431250 6.6054987500 -6.4401983406
2.2261368750 6.2374321875 -3.9974793760
-1.6800368750 5.3949950000 -6.4568572030
3.2808059375 6.6484046875 -4.8751846080
3.8780221875 6.5671346875 -5.5994902376
2.2962806250 2.3155500000 -4.8219518880
2.8104800000 2.2738131250 -2.3983477440
6.7153234375 6.3562734375 -4.8437889600
6.7143559375 5.7880821875 -4.0412053280
2.2947084375 5.6980106250 -4.8501354400
4.4943062500 6.4651306250 -4.9169936640
5.0966153125 6.4120121875 -5.6366313928
5.6513153125 6.2960196875 -4.8266923200
6.1823653125 6.2939906250 -5.7044325224
2.7239962500 6.6917675000 -2.4094864640