ITEM: TIMESTEP
72000
# source: voids-relax.72000.cfg
ITEM: NUMBER OF ATOMS
2298
ITEM: BOX BOUNDS pp pp pp
-6.7187500000 6.7187500000
-6.7187500000 6.7187500000
-6.4760000000 6.4760000000
ITEM: ATOMS x y z
-6.6474386656 -6.3609523750 -4.0727434480
-5.5892152500 -6.5071685000 -4.1103690080
-3.9016990625 -6.3952838438 -6.3017412016
-4.5070853125 -6.5670701875 -4.0494816560
-3.2920262500 -6.4706050625 -4.0105090880
-6.6936021219 -5.8198565000 -4.9123568480
-6.0457274375 -5.9263150938 -5.6215954160
-5.4925149688 -5.9269184375 -4.8797437120
-5.5700721875 -5.3912849063 -4.0428243280
-4.8642137500 -6.0361518750 -5.6847325304
-4.3731403125 -6.0227869375 -4.9162813040
-4.4672028125 -5.4618788125 -4.0359079600
-3.4384950000 -5.9537759688 -4.8969439680
-2.9457150000 -5.8220347188 -5.6572976040
-2.7098465625 -5.2516034375 -6.4679198430
-2.2998281250 -5.7437061875 -4.9522231040
-6.6379908938 -4.6384368750 -4.8201386080
-6.1268133438 -4.2158678125 -6.4652296349
-6.1351378750 -4.8008425000 -5.6980510720
-5.5571265000 -4.8287925000 -4.8603157120
-5.5671307188 -4.2744821875 -4.0047195440
-5.0249934375 -4.9055071875 -5.7088051176
-4.4637896875 -4.8953753125 -4.8826320080
-3.9070337500 -4.3963200000 -6.4210876646
-4.4488337500 -4.3974890625 -4.0154697040
-3.8797825000 -5.0384309375 -5.6305724472
-3.3249615625 -4.7534618750 -4.8100878560
-3.8745150000 -4.2979843750 -3.1984057360
-2.7823150000 -4.6811009375 -5.6610744072
-6.7128040406 -3.5124415625 -4.8419886320
-6.1449835313 -3.0932050000 -6.4617246942
-6.6640678406 -2.9551078125 -4.0052376240
-6.1562616250 -3.6574187500 -5.6622841240
-5.5791156250 -3.7543434375 -4.8647712000
-5.5989453438 -3.1807100000 -4.0765513360
-5.0240662500 -3.7295512500 -5.6570592872
-4.4322250000 -3.8470487500 -4.8905586320
-3.8770143750 -3.1717068750 -6.4149740616
-4.4815943750 -3.3146146875 -4.0582890160
-3.8816637500 -3.8096790625 -5.7242983000
-3.3477515625 -3.6343062500 -4.8933821680
-2.7847471875 -3.0771203125 -6.4313736250
-3.3349993750 -3.1306687500 -3.9896175120
-2.7209593750 -3.6341718750 -5.6426735008
-6.1102852188 -6.4371564375 -3.2095444560
-5.0663809375 -6.6185065188 -3.2310318240
-3.9215865625 -6.5392612813 -3.3178749840
-2.7488153125 -6.3760050625 -3.1967867360
-6.1536856563 -5.3475203125 -3.2682558720
-6.1708198125 -5.8662373750 -2.3930633280
-5.0216743750 -5.5050279688 -3.2188569440
-4.9887390625 -6.0583210625 -2.4296915840
-3.8811531250 -5.4188116250 -3.2605105760
-3.8665600000 -5.9996421875 -2.4484590320
-2.7545800000 -4.7109859375 -2.3633773440
-2.7691328125 -5.2129437500 -3.2776978800
-6.1813494375 -4.2600368750 -3.2715327280
-6.1141175938 -4.7996062500 -2.4021426800
-5.0127518750 -4.3171596875 -3.2115390640
-5.0417500000 -4.9088128125 -2.4845951120
-3.9023037500 -4.8850687500 -2.4408562080
-3.3489609375 -4.2024437500 -4.0606721840
-6.1232658438 -3.1107140625 -3.1744315840
-6.1616635000 -3.7145818750 -2.4660996560
-5.0479581250 -3.1892159375 -3.2330652880
-5.0057509375 -3.7495731250 -2.4153407680
-3.9425759375 -3.1483256250 -3.2559385200
-3.9050987500 -3.7128484375 -2.4466068960
-2.7606268750 -3.0690712500 -3.1924478160
-2.7651687500 -4.1773693750 -3.2569099200
-3.3234834375 -5.3738309375 -4.0736889440
-6.1420353438 -2.5371209375 -5.6608801272
-5.5884143750 -2.5978046875 -4.8550701520
-5.0277078125 -2.6533821875 -5.6649613024
-4.4678343750 -2.7325425000 -4.8157867360
-3.9592518750 -2.5958159375 -5.6721470720
-3.3568353125 -2.6080709375 -4.8857016320
-2.8006437500 -2.4730240625 -5.6889263880
-6.1603815625 -2.4980312500 -2.4509717200
-5.0068259375 -2.6374184375 -2.3889704960
-3.8855875000 -2.6073721875 -2.4140067120
-2.8073759375 -2.4612662500 -2.4870300880
-2.8128987500 -5.7781142500 -2.4624990000
-2.8082762500 -3.6408771875 -2.4116883040
-2.2433100000 -6.2821710000 -4.0955389680
-2.2654550000 -2.8739856250 -4.0659825040
-6.7026829156 -5.2585237500 -4.1298876720
-6.1426669063 -6.4621286875 -6.4736626821
-2.7935621875 -6.3674144688 -6.4691853570
-6.1750768125 -5.3841630313 -6.4621388991
-3.8739506250 -5.4577145313 -6.4561997595
-5.0152243750 -4.3202771875 -6.4379579037
-1.6436750000 -5.0810412500 -3.1986647760
-1.1064975000 -6.7174906993 -4.8410819920
-0.5639450000 -6.0426959375 -6.4735892701
-1.1712393750 -6.1174500938 -4.0871719760
-0.5800431250 -6.6130881156 -5.7018628456
-0.0359318750 -6.4334409688 -4.8843287200
0.5953887500 -5.8573202500 -6.4678618698
-0.0079953125 -5.9280955625 -4.0125684560
0.5720746875 -6.3881230000 -5.6185193160
1.1296503125 -6.2967802500 -4.8189599760
1.1717231250 -5.7379764375 -4.0527196560
1.6690450000 -6.3018959063 -5.6575294448
-2.1796296875 -5.2408803125 -4.0418270240
-1.6635356250 -5.6670640625 -5.6049792952
-1.0750134375 -5.5752174063 -4.8748349040
-0.6064612500 -4.8722493750 -6.4534247935
-1.1160246875 -5.0052134375 -4.0368664080
-0.5199371875 -5.4745073750 -5.7130507832
0.0324918750 -5.3339081250 -4.7993247440
0.5897450000 -4.6531509375 -6.4670307918
-0.0165953125 -4.6798378125 -4.2279213600
0.5409668750 -5.2629984375 -5.7208893336
1.0781981250 -5.1622978125 -4.8510420800
1.6706037500 -4.6095596875 -6.4094593590
1.1093865625 -4.6081218750 -4.0206505040
1.6427746875 -5.2179425000 -5.6600732176
-2.2074453125 -4.6636321875 -4.8274435360
-1.5821043750 -3.9501815625 -6.4577928555
-2.2075393750 -4.0770450000 -4.0837785520
-1.6756025000 -4.4983240625 -5.6676048056
-1.0851184375 -4.4664906250 -4.9327173920
-0.5346646875 -3.8536868750 -6.4236472389
-1.0490253125 -3.9463250000 -4.0069343360
-0.4035953125 -4.3622693750 -5.4851318488
1.0858037500 -4.0877009375 -4.9044172720
0.0330293750 -3.7690709375 -4.1604284880
0.4825137500 -4.1277446875 -5.5501612504
1.6881800000 -4.0287506250 -5.6582962032
1.1374440625 -3.5220762500 -4.0310380080
-2.2013178125 -3.4807021875 -4.7938590000
-1.6672846875 -3.3890181250 -5.6516984544
-1.0800121875 -3.3927403125 -4.8087538000
-1.1599384375 -2.7948790625 -4.0978573760
-0.5932790625 -3.2431540625 -5.6737997472
0.5759581250 -2.9102265625 -5.8919891392
0.0291056250 -3.2332371875 -4.9160481680
1.0648546875 -2.9919131250 -4.8871781600
1.1766278125 -2.4528275000 -4.0647261600
1.7084303125 -2.3854384375 -3.2320679840
1.6667471875 -2.9360668750 -5.6224113920
-1.6785721875 -6.2475049375 -3.2123291360
-0.6039618750 -6.0395811250 -3.2771409440
-0.5201387500 -6.5913496000 -2.4704774320
0.5934671875 -5.8137276563 -3.3047546080
0.5309021875 -6.3675663125 -2.4610354240
1.7312740625 -5.7705932813 -3.2429994720
1.6802518750 -6.2965585313 -2.3673406560
-1.6807087500 -5.6605226875 -2.4515934160
-0.5112565625 -4.9714718750 -3.2425979600
-0.5051828125 -5.5133121875 -2.3942937680
0.4967171875 -4.7526421875 -3.2677248400
0.6137712500 -5.2994006250 -2.4178664080
1.6653496875 -4.6417693750 -3.2309929680
1.6656721875 -5.2085093750 -2.4385637040
-1.6633609375 -3.9291384375 -3.2830341040
-1.6670562500 -4.4840265625 -2.4602842080
-0.5001303125 -3.7865396875 -3.2066820640
-0.5789950000 -4.3908240625 -2.4775751280
0.5620906250 -3.6449756250 -3.2096998800
0.6155181250 -4.2281496875 -2.4064168400
1.6795531250 -3.4931453125 -3.2094278880
1.7176753125 -4.0729734375 -2.4493786240
-1.6371846875 -3.4296665625 -2.3575489440
0.0069337500 -2.6927540625 -4.0048102080
-0.5524290625 -3.2161312500 -2.4506479200
0.5799759375 -2.4897940625 -3.2778144480
0.5497818750 -3.0619762500 -2.4659701360
2.2173218750 -5.1879231250 -4.9026298960
2.2324256250 -2.9481471875 -4.8096086320
-2.2300337500 -2.3444003125 -4.9263838640
-1.6051362500 -2.3537528125 -5.6478258064
-1.6849953125 -2.8998393750 -3.2217063840
-0.6044859375 -2.6826759375 -3.2981749920
1.6934340625 -2.9353681250 -2.4140973760
-1.6874946875 -2.3302371875 -2.4027514240
0.5753265625 -3.5829884375 -6.4365232106
2.2171203125 -4.6631618750 -4.0457126240
2.2161796875 -3.5385909375 -4.0609441760
-1.6521540625 -5.1030384375 -6.4129575647
1.6751321875 -3.4941800000 -6.4758479085
6.6991312500 -2.4360843750 -4.8971252960
2.2428934375 -4.0919203125 -4.8551737680
6.7024234375 -4.0670475000 -4.0420860640
2.2459437500 -6.3169835313 -4.8246977120
2.8378118750 -5.7749980938 -6.4409842680
2.2980946875 -5.7240121875 -4.0673554160
2.7487750000 -6.3645415313 -5.6893214240
3.3414225000 -6.3809070625 -4.9075905120
3.3768168750 -5.8400960625 -4.0628610720
3.9353196875 -6.5265252188 -5.6206058832
4.5401818750 -6.5612678750 -4.9036401520
4.4433915625 -6.0380129688 -4.0467099280
5.1187065625 -6.6696446719 -5.6761077936
6.2238065625 -6.1921115313 -6.4637433281
5.6379987500 -6.2064117188 -4.0107940320
2.8281503125 -5.2176334375 -5.6339593952
3.4092550000 -5.2754818750 -4.8845748080
3.3155956250 -4.7366784375 -4.0589754720
3.9695718750 -5.3831619375 -5.7069788856
4.5039140625 -5.4461999375 -4.8262778560
5.1177390625 -4.9335512500 -6.4542386972
4.5300903125 -4.9012340625 -4.0016240160
5.0360659375 -5.5271447500 -5.7167369224
5.5539203125 -5.6674174688 -4.8424549040
5.6807837500 -5.0904206250 -4.0714482480
6.1517815625 -5.6705752813 -5.6102870248
2.8317515625 -3.5344521875 -6.4700098813
2.8241862500 -4.1126678125 -5.6712313656
3.3593750000 -4.1375003125 -4.8157867360
3.9538768750 -3.6257734375 -6.4343705882
3.4089996875 -3.5821821875 -4.0122187520
3.8976006250 -4.2440731250 -5.7156891056
4.4202521875 -4.3711381250 -4.8745370080
4.5272818750 -3.8043309375 -4.0746603440
5.0357568750 -4.3869943750 -5.6270041712
5.6091081250 -4.5398459375 -4.8878387120
5.5762534375 -3.9675696875 -4.1115087840
6.2170609375 -4.5893362500 -5.6187304336
2.7961153125 -2.3727937500 -6.4393330175
2.2882718750 -2.3615331250 -4.0495464160
2.7271271875 -2.9755328125 -5.7002956536
3.3080706250 -3.0644890625 -4.9128749280
3.3917325000 -2.5098831250 -4.0613068320
3.9218284375 -3.0763409375 -5.6381221680
4.4859884375 -3.2535815625 -4.8887583040
4.4453803125 -2.6788596875 -4.1118843920
5.1013318750 -3.3097637500 -5.6248360064
5.6487621875 -3.3466631250 -4.7996096880
5.6026581250 -2.7725996875 -4.0283051360
6.1757003125 -3.5221971875 -5.6926371360
2.8273709375 -5.8029870625 -3.2030943600
2.7861581250 -6.3848953125 -2.4139808080
3.9119921875 -5.9179354688 -3.1846248080
3.9315840625 -6.5263021563 -2.4604914400
5.0281109375 -6.0910884063 -3.2876450160
5.1096093750 -6.6163330031 -2.4364395760
6.2209712500 -6.2444008750 -3.2708074160
2.7906328125 -4.6377246875 -3.2197376800
2.8076715625 -5.2155103125 -2.4527720480
3.9122475000 -4.8066206250 -3.3047287040
3.9830362500 -5.3338409375 -2.4351314240
5.1180615625 -4.9833371875 -3.2578942720
5.0606565625 -5.5398176563 -2.4558546240
6.2261715625 -5.1211387500 -3.2158520800
6.1294350000 -5.6878545625 -2.4410504880
2.7892084375 -3.5293996875 -3.2973072080
2.8451890625 -4.0598450000 -2.4360639680
3.9756993750 -3.6985778125 -3.2399816560
3.9163190625 -4.2660568750 -2.4563468000
5.0700359375 -3.8387175000 -3.1943647120
4.9995293750 -4.4258421875 -2.4435890800
6.1166693750 -4.0476034375 -3.2579201760
6.1799196875 -4.5757643750 -2.3690891760
2.8236353125 -2.4198653125 -3.2255272240
2.8048093750 -2.9917787500 -2.4299765280
3.9352390625 -2.5482471875 -3.1938077760
3.8817040625 -3.1320125000 -2.4408562080
4.9914534375 -2.7701540625 -3.2864663840
5.0722531250 -3.2787096875 -2.3781296720
6.1567400000 -2.9695665625 -3.2680486400
6.1997131250 -3.5084371875 -2.4063391280
6.1276075000 -2.3690178125 -5.6727467496
6.1368256250 -2.4075162500 -2.4793754560
3.9061737500 -5.9910502500 -6.4479837878
5.0465203125 -6.1107770313 -6.4751769626
6.1787775000 -2.9407296875 -6.4589223994
-6.1779887188 -1.9756887500 -6.4488172490
-5.6100353125 -2.0627637500 -4.0123741760
-4.4703203125 -2.1257856250 -4.0972874880
-3.3527503125 -2.0393287500 -4.0777688240
-6.7020995938 -1.3397590625 -4.8722963120
-6.1662201563 -1.3777334375 -5.7157188952
-5.6192776250 -1.5178328125 -4.8650172880
-5.6071126563 -0.9684271875 -4.0329419520
-5.0435909375 -1.5379890625 -5.6722649352
-4.5074750000 -1.5447481250 -4.8571554240
-4.4685062500 -0.9892956250 -4.0530175520
-3.9059318750 -1.5260834375 -5.6171373376
-3.3451850000 -1.4562890625 -4.8231693760
-3.3677600000 -0.8520718750 -4.0904747360
-2.8316306250 -1.3074956250 -5.6926980104
-6.1593038750 -0.2239493750 -5.6419637312
-5.6079834063 -0.4204593750 -4.8298396560
-5.6243892500 0.1884878125 -4.1193447440
-5.0382562500 -0.4171671875 -5.6291930592
-4.4586968750 -0.4106768750 -4.8476486560
-3.9204712500 0.1656171875 -6.4310680873
-4.5080796875 0.1437275000 -4.0461918480
-3.9293534375 -0.4305106250 -5.7013382896
-3.3793296875 -0.2737890625 -4.8869968320
-2.8184887500 0.3141821875 -6.4535469309
-3.3498881250 0.2432321875 -3.9864831280
-2.7850562500 -0.2633078125 -5.6619849328
-6.1392000313 0.8359468750 -5.6112467680
-5.5943860000 0.8059543750 -4.8078730640
-5.0683159375 1.1792481250 -6.4677051247
-5.6072564375 1.3796146875 -4.0318410320
-5.0523387500 0.6200062500 -5.6523965672
-4.4792696875 0.7129937500 -4.8406675280
-4.5050159375 1.2962215625 -4.0622393760
-3.9632831250 0.7656418750 -5.7006349960
-3.3783621875 0.7633037500 -4.8845230000
-2.8221034375 0.8957571875 -5.6977998032
-6.1704247500 -1.9349731250 -3.2121219040
-5.0106690625 -2.1174812500 -3.2584900640
-3.9202025000 -2.0564884375 -3.2573761920
-2.8262018750 -1.8673959375 -3.2345418160
-6.1778422500 -0.7933500000 -3.2547210320
-6.1258109063 -1.3470556250 -2.4341600240
-5.0245634375 -0.9688975000 -3.2591247120
-5.0652118750 -1.5415500000 -2.4605691520
-3.8926825000 -0.9879653125 -3.2403572640
-3.9591443750 -1.5159246875 -2.3917422240
-2.8192412500 -0.7785150000 -3.2344641040
-2.7660421875 -1.3304334375 -2.4060412320
-6.1491625938 0.3108496875 -3.2406422080
-6.1552094688 -0.2496284375 -2.4193817920
-5.0909312500 0.1210853125 -3.2561328000
-5.0324512500 -0.4374578125 -2.4116235440
-3.9583515625 0.1699171875 -3.2652769120
-3.9532050000 -0.3946190625 -2.4738449520
-6.2041340625 1.3709609375 -3.2820497520
-6.1860579375 0.8545846875 -2.3899030400
-5.0550396875 1.1790062500 -3.2287004640
-5.0401778125 0.6434546875 -2.3825981120
-2.8622412500 1.4902321875 -3.2812726320
-3.8880062500 0.7217415625 -2.4494433840
-2.7623065625 0.3209681250 -3.2300474720
-2.8291581250 0.9209659375 -2.4851650000
-2.2489671875 -1.3175065625 -4.8660404960
-2.2577418750 -0.7428787500 -4.0689614640
-2.2460109375 -0.1610887500 -4.8191542560
-2.2898440625 1.0018596875 -4.8823211600
-2.2451912500 1.5141912500 -3.9809785280
-6.2220140000 1.9026559375 -5.6861507744
-5.6431668125 1.9312912500 -4.8775807280
-5.0943040625 1.7542387500 -5.7040167632
-4.5414853125 1.8438400000 -4.9112559280
-3.9157815625 1.8437190625 -5.6148694424
-3.3594153125 1.9139300000 -4.8098676720
-3.4129906250 1.3188234375 -4.0733780960
-2.8286878125 2.0559375000 -5.6535933320
-6.1816947813 1.9085012500 -2.4251713360
-5.0925706250 1.7594525000 -2.4742853200
-3.9694106250 1.3089737500 -3.2184165760
-3.9306568750 1.8524937500 -2.3785829920
-2.8477556250 -0.2254543750 -2.4091885680
-2.7593771875 2.0189171875 -2.3990212480
-2.7835378125 -1.9109065625 -6.4452002735
-6.1351204063 -0.7823715625 -6.4506794876
-2.8142290625 1.4861337500 -6.4494752106
-2.2237450000 -1.8368525000 -3.9879726080
1.6335431250 -1.8057178125 -2.4602324000
-1.6841890625 0.4912750000 -3.2240118400
-1.6794590625 -1.7840700000 -6.4251448786
-1.1326200000 -1.6085896875 -4.0539241920
-0.5424181250 -2.1460628125 -5.6411607072
-0.5590268750 -1.6320918750 -3.2180150640
-1.0751209375 -2.1977031250 -4.8024073200
0.0416562500 -2.1376106250 -4.8097640560
-0.0397346875 -1.5144062500 -4.0942826240
0.5441246875 -2.0097259375 -5.7685203136
1.0734143750 -1.8693578125 -4.8458612800
1.6789215625 -1.2644553125 -6.4174098147
1.1311418750 -1.3438306250 -3.9967411120
1.6702006250 -1.8425634375 -5.6577392672
-1.6338253125 -0.5914112500 -6.4443835204
-1.7193012500 -1.1787643750 -5.7088854200
-1.1748675000 -1.0741131250 -4.9038991920
-0.5492578125 -0.5228128125 -6.4100993174
-0.5271262500 -0.4831856250 -3.2198024400
-0.5347318750 -1.1022109375 -5.6255664992
-0.0081296875 -0.9343362500 -4.8329869920
0.5599137500 -0.9006618750 -5.6375678224
0.0031578125 -0.3337337500 -4.0652571920
1.1326065625 -0.7935246875 -4.8420015840
1.0674346875 -0.2106462500 -4.0952928800
1.6631325000 -0.6711762500 -5.6818817952
-2.2379350000 0.4349853125 -4.0886873600
-1.7190728125 -0.0168775000 -5.6603387336
-1.1026006250 -0.5571993750 -3.9745931920
-1.1161456250 -0.0459696875 -4.8553162400
-0.6021343750 0.0964678125 -5.7019055872
-0.0334190625 0.2028525000 -4.9126158880
-0.0151306250 0.7234884375 -3.9852915440
0.5700053125 0.1921831250 -5.6543303008
1.1075993750 0.3956806250 -4.8486330080
1.6821600000 0.4068203125 -5.6334944184
1.0815709375 0.9307887500 -4.0349883680
-1.6666262500 1.0237628125 -5.6338324656
-1.1371081250 0.5466106250 -4.0852680320
-1.1254443750 1.1258206250 -4.8210970560
-0.5878100000 1.2621709375 -5.6530661856
0.0090300000 1.2467043750 -4.8653799440
0.5723568750 2.0155981250 -6.4696796571
-0.0351659375 1.8340843750 -4.0843225360
0.5314800000 1.4210828125 -5.7145972520
1.0775800000 1.4930540625 -4.8736174160
1.6628771875 1.4865906250 -5.6589295560
-1.6556612500 -1.7775796875 -3.1995196080
-0.5761731250 -1.0425215625 -2.4291735040
0.5111893750 -1.3801118750 -3.2862721040
0.5725181250 -1.9458440625 -2.4550775040
1.7061056250 -1.2363709375 -3.2353966480
-1.6665053125 -1.1617256250 -2.4809167440
-0.5785784375 0.1108862500 -2.4736506720
-0.6189715625 0.6957803125 -3.2380647600
0.5628968750 -0.3312075000 -3.1909583360
1.6167596875 -0.1084271875 -3.2345936240
-1.7553675000 1.0567787500 -2.4180736400
-1.7267859375 -0.5903765625 -3.2512369440
-0.5662159375 1.7671521875 -3.2190512240
-1.6581203125 -0.0611003125 -2.3876105360
-0.5454146875 1.2236859375 -2.3662526880
0.5490025000 0.8073787500 -3.2014624080
1.6710068750 0.9418881250 -3.2417560800
1.7141681250 0.4167103125 -2.3787254640
-1.6504878125 1.6025696875 -3.2361478640
0.5021056250 1.9921228125 -3.2568322080
1.1075321875 2.0137168750 -3.9810044320
1.6088315625 1.5208831250 -2.4321006560
2.1715940625 -0.1734512500 -4.0501681120
1.6960140625 2.0698721875 -3.2458359600
-2.2301278125 2.0445290625 -4.8557177520
-1.7077853125 2.1764987500 -5.7180217608
1.6968740625 2.0629921875 -6.4409473548
-1.7104056250 2.2034409375 -2.4952287040
-0.5079912500 -2.1677912500 -2.3820541280
0.5848000000 -0.8912421875 -2.3515780720
0.5123987500 0.2473037500 -2.4072975760
0.5485053125 1.4121603125 -2.4717078720
1.6777256250 -0.6818993750 -2.4396646240
-1.1245171875 1.7273906250 -4.0762793440
2.1961578125 -1.8243287500 -4.8882402240
2.2090712500 1.0141684375 -4.0762663920
2.1975284375 1.6029862500 -4.8305649680
-0.5406175000 0.6846003125 -6.4466589278
0.5465434375 0.7880153125 -6.3940673318
-1.7096665625 1.5733834375 -6.4465292782
5.0228837500 -2.2386740625 -5.6989331032
5.5799084375 -2.2235837500 -4.8451618720
6.7145843750 -1.8954400000 -4.0507380000
6.7016709375 0.3038218750 -4.0448836960
6.6958928125 0.8644075000 -4.8338418240
6.7170568750 2.0738900000 -4.7737574960
2.2482146875 0.4186587500 -4.8073549840
2.2563712500 -1.2771000000 -4.0515669280
2.2412003125 -0.7134371875 -4.8853130720
6.6836378125 -0.7902996875 -4.0277222960
6.6891068750 -0.2561187500 -4.8736692240
6.6703212500 1.4585734375 -4.0945546160
2.8183409375 -1.8211575000 -5.6468867864
3.3738337500 -1.9642937500 -4.8871911120
3.3141578125 -1.3948125000 -4.0969248320
3.9656615625 -1.9809562500 -5.6654612496
4.5145296875 -2.0701140625 -4.8063317760
4.4772137500 -1.4916028125 -4.0351308400
6.1512440625 -1.8107165625 -6.4612799225
5.6437365625 -1.6567900000 -4.0219198000
2.7535856250 -0.1776571875 -3.2999105600
2.8196443750 -0.7129400000 -5.6503397896
3.3694934375 -0.7911193750 -4.8091553120
3.3605171875 -0.2233312500 -4.0186818000
3.8971706250 -0.9146100000 -5.6824879488
4.4474631250 -0.9380046875 -4.8383491200
5.0127115625 -0.5556943750 -6.4759292896
4.5121781250 -0.3643309375 -4.0470725840
4.9976078125 -1.1073575000 -5.6671450096
5.5741975000 -1.1377396875 -4.8915429840
5.5867212500 -0.5805671875 -4.0602706720
6.1470784375 -1.2350137500 -5.6639329136
2.7645237500 0.4139556250 -5.6912344344
3.3187400000 0.3203231250 -4.8347743680
3.3635943750 0.9205896875 -4.0588070960
3.8703628125 0.1988078125 -5.6618735456
4.4445606250 0.1843625000 -4.8866471280
4.4592343750 0.7160843750 -4.0341723920
5.0141225000 0.0034131250 -5.6732985048
5.5902284375 -0.0214462500 -4.8777491040
6.1670868750 0.5140650000 -6.4247621470
5.5736868750 0.5121703125 -4.0117136240
6.1415959375 -0.0851400000 -5.7102777600
2.7630993750 1.4802884375 -5.6257646648
3.3484368750 1.4640559375 -4.8705607440
3.8979365625 1.8932496875 -6.4544442454
3.3431021875 2.0390062500 -4.0665912480
3.8920643750 1.3052650000 -5.6864642128
4.4719865625 1.2642537500 -4.8785003200
5.0334456250 1.8061746875 -6.4198696586
4.4422628125 1.8118318750 -4.0190833120
5.0201559375 1.1947012500 -5.7196912736
5.5584084375 1.0373078125 -4.8876962400
5.5422431250 1.5840662500 -4.0424487200
6.1655146875 1.0825250000 -5.6297305672
2.8135975000 -1.2841143750 -3.1892098160
2.7680981250 -1.8570356250 -2.4170763360
3.8713034375 -1.4831371875 -3.2823735520
3.9674890625 -2.0011259375 -2.3796968640
5.0321825000 -1.6811253125 -3.2732423920
5.0882975000 -2.2265400000 -2.4197833040
6.1747328125 -1.7895928125 -3.1868784560
2.7996896875 0.3583243750 -2.4387968400
2.8014903125 -0.6901365625 -2.4151723920
3.9307643750 -0.3904937500 -3.2630232640
3.9281171875 -0.9310306250 -2.4273602240
5.0593531250 -0.5321384375 -3.1967867360
4.9902843750 -1.1305371875 -2.4596107040
6.1316656250 -0.6385365625 -3.1932119840
6.1504781250 -1.2145753125 -2.4282409600
2.8095796875 2.0180168750 -3.2091947520
2.7860371875 0.9231562500 -3.2773999840
3.9085387500 0.7712318750 -3.2175746960
3.8663718750 0.1792293750 -2.4703997200
5.0197528125 0.6164721875 -3.1986129680
4.9992203125 0.0485496875 -2.4290698880
6.1548050000 0.4908584375 -3.2373653520
6.1784550000 -0.0588025000 -2.4263888240
2.2549468750 2.1542596875 -4.0451945440
3.8874015625 1.8969046875 -3.2001672080
3.8794465625 1.3229084375 -2.4148874480
5.0063421875 1.7834115625 -3.2118628640
5.0413334375 1.2077087500 -2.4471120240
6.1318537500 1.6277246875 -3.2568063040
6.1488925000 1.0573700000 -2.4408044000
5.5856462500 2.1532787500 -4.8340231520
6.1760362500 2.1491937500 -5.6294909552
6.1615237500 2.1451759375 -2.3796321040
2.7192662500 1.4495031250 -2.4117530640
6.1493896875 -0.6784593750 -6.4557034389
5.0230450000 0.5885893750 -6.4313391726
-6.1755148750 6.4272906250 -5.6400597872
-5.5917979375 6.3348540625 -4.8497857360
-5.0452571875 6.3200459375 -5.6126041376
-4.4415237500 6.2739553125 -4.8332330800
-3.9054346875 6.4199806250 -5.7071213576
-3.3627612500 6.4074703125 -4.8620383280
-2.7558700000 6.4989259375 -5.6368230824
-6.1849385938 6.4267396875 -2.4302226160
-5.0294950000 6.2658390625 -2.4010676640
-3.9478165625 6.3904450000 -2.4368799440
-2.8108025000 6.4929596875 -2.4249641040
-3.9023709375 2.3880587500 -3.2300474720
-5.0394790625 2.3560103125 -6.4062370310
-5.5561549688 2.4559315625 -4.0006526160
-3.9465265625 2.3871853125 -6.4753115079
-4.4758565625 2.3684131250 -4.0346904720
-6.1816585000 3.6211778125 -6.4284087826
-6.2054321250 3.0378290625 -5.6693468496
-5.6087117188 2.9769034375 -4.9064248320
-5.6545215000 3.5109903125 -4.0459457600
-5.0498528125 2.9772125000 -5.7004925240
-4.4962546875 2.9267681250 -4.8757285920
-3.8925615625 3.5341700000 -6.4593136794
-4.5223503125 3.4683128125 -4.0298334720
-3.9238575000 2.9577818750 -5.6823234584
-3.4024556250 3.1345521875 -4.8567539120
-2.7947984375 3.6258675000 -6.4625828937
-3.3482084375 3.6734900000 -4.0128793040
-2.7974590625 3.0806812500 -5.6156038208
-6.1302466250 4.1979287500 -5.6604876816
-5.5856852188 4.0749084375 -4.8480113120
-5.6122686250 4.6257787500 -4.0302220320
-5.0261356250 4.0995528125 -5.6803314408
-4.4894284375 4.0228381250 -4.8320803520
-4.4643809375 4.6212771875 -4.0816673760
-3.9485825000 4.1205556250 -5.6966354184
-3.3893137500 4.2012209375 -4.8737857920
-2.7730834375 4.8078703125 -6.4197528315
-3.3921759375 4.7682162500 -4.0349365600
-2.8237025000 4.2130190625 -5.7025363496
-6.1592608750 5.3429918750 -5.6887657832
-5.6282149063 5.1950315625 -4.8125228320
-5.5737406250 5.7808125000 -4.0547401680
-5.0767681250 5.1971412500 -5.6498217096
-4.5016431250 5.1791887500 -4.8797825680
-3.9523315625 5.8022990625 -6.4127601762
-4.4492368750 5.7258934375 -4.0406872480
-3.9188453125 5.2260318750 -5.6429817584
-3.3310218750 5.2978150000 -4.8766481840
-3.3525487500 5.8626468750 -4.0548049280
-2.8070534375 5.4279034375 -5.7128629792
-6.1800500313 2.4663590625 -3.2495402320
-5.0283796875 2.3694746875 -3.1838994960
-3.3846778125 2.5277012500 -4.1219480960
-2.8571081250 2.5689543750 -3.2362126240
-6.1702379688 3.6495175000 -3.1590705120
-6.1975564063 3.0257353125 -2.4720575760
-5.0727771875 3.5479703125 -3.2294516800
-5.0386728125 2.9587493750 -2.4545464720
-3.9310196875 3.5090284375 -3.2836558000
-3.9546428125 2.9670268750 -2.4327741600
-2.7621453125 3.6406756250 -3.2343475360
-2.8373818750 3.1119637500 -2.3769121840
-6.1754288750 4.8023071875 -3.2557830960
-6.1588322188 4.2505096875 -2.4403122240
-5.0215400000 4.6224462500 -3.2615208320
-5.0303012500 4.0859406250 -2.3942937680
-3.9374025000 4.6497243750 -3.1949864080
-3.9058378125 4.0579637500 -2.4517876960
-2.8134093750 4.8001571875 -3.2562623200
-2.8356350000 4.2230837500 -2.4593128080
-6.1378683750 5.8920481250 -3.2716752000
-6.1348194063 5.3507050000 -2.4169338640
-5.0047565625 5.7273984375 -3.2518845440
-5.0793750000 5.1782078125 -2.4237466160
-3.8884362500 5.7876521875 -3.2013458400
-3.9383296875 5.2309365625 -2.4148356400
-2.8081956250 5.9241368750 -3.1938725360
-2.7485196875 5.3369987500 -2.4247180160
-2.2929615625 2.6232150000 -4.0810715840
-2.2449762500 3.8186821875 -4.0987251600
-2.2645278125 6.0143293750 -4.0426041440
-2.3010375000 4.3872093750 -4.8871652080
-6.7090989725 2.6688218750 -4.0547401680
-6.6978295594 3.7729946875 -4.0265436640
-6.6991945406 5.3880209375 -4.8246847600
-6.1568582500 2.4766656250 -6.4737189197
-6.2018832813 4.7520375000 -6.4537077947
-5.0386862500 5.7859725000 -6.4509102922
-1.6628503125 6.6803456250 -5.7063364664
-2.2377737500 3.2136856250 -4.8242702960
-2.2029706250 6.5708971875 -4.8566632480
-1.6095303125 6.6256012500 -2.4117660160
1.1084996875 2.5478843750 -4.8346448480
-1.6808162500 2.7641743750 -6.4478222764
-1.1681756250 2.2777771875 -4.8889914400
-0.5651543750 4.0759565625 -6.4635916602
-1.1379546875 2.8038553125 -3.9815225120
-0.5556406250 2.3106721875 -5.6560425552
-0.0261090625 2.4205640625 -4.8235320320
0.0118384375 3.0122440625 -4.0543775120
0.5201387500 2.5651918750 -5.6407721472
1.6195546875 2.6542556250 -5.6837352264
1.1051403125 3.7443459375 -4.8290107280
-1.6998706250 3.3353621875 -5.6534275464
-1.1040115625 3.3173693750 -4.8576735040
-1.1818818750 3.9098018750 -4.0869517920
-0.5653021875 2.8932550000 -6.4232740918
-0.5842221875 3.4972034375 -5.7081121856
0.5474034375 4.1718868750 -6.4290863018
-0.0356496875 4.0975775000 -3.9930886480
-0.0475821875 3.5722250000 -4.8650043360
0.5479946875 3.6184903125 -5.6227908856
1.1199753125 4.3056168750 -4.0286159840
1.6548415625 3.7661953125 -5.6506053056
-1.6483781250 4.9079259375 -6.4561260626
-2.2195659375 4.9021612500 -3.9887885840
-1.6663709375 4.3752634375 -5.6036685528
-1.1066721875 4.4994796875 -4.8261094800
-1.0987037500 5.0948818750 -4.0891536320
-0.5504134375 4.6376843750 -5.6357843320
0.0398153125 4.6481253125 -4.8273658240
0.5626415625 5.3871340625 -6.4417076372
-0.0292803125 5.2492250000 -4.1003700640
0.5368415625 4.7995390625 -5.7102440848
1.0968225000 4.8598062500 -4.8799379920
1.6940925000 5.4675843750 -6.4160787377
1.0977093750 5.3892437500 -3.9927259920
1.6764893750 4.8708384375 -5.6705034632
-2.2359731250 5.4351059375 -4.8410042800
-1.6201728125 6.0897675000 -6.4600013010
-1.7100025000 5.5058006250 -5.7100886608
-1.1879153125 5.6597406250 -4.8787205040
-0.5037718750 6.2248546875 -6.4455905173
-1.0789909375 6.1877403125 -4.0028674080
-0.5605721875 5.6736618750 -5.6121352752
-0.0065171875 5.8388221875 -4.8474543760
0.0434703125 6.4282043750 -4.0785459440
0.5642003125 5.9613184375 -5.6268966696
1.1439881250 5.9281546875 -4.8563264960
1.0954787500 6.5179803125 -4.0961606640
1.6794321875 6.0675150000 -5.6821110456
-1.7561200000 2.7725728125 -3.2759493600
-0.5489084375 2.9050800000 -3.2569487760
-0.6341156250 2.3512668750 -2.4486921680
1.1005178125 3.1494275000 -4.0876900560
0.5360890625 2.5071284375 -2.3915868000
1.6409875000 3.2040509375 -3.2327803440
-1.7077046875 3.8488493750 -3.1934192160
-1.6263675000 3.2924831250 -2.3885430800
-0.6469887500 4.0662009375 -3.2614172160
-0.5389243750 3.4932528125 -2.4845951120
0.5484246875 4.2242931250 -3.2580496960
0.5123718750 3.6586550000 -2.4488734960
1.6849146875 4.2966809375 -3.2103345280
1.6562659375 3.7423840625 -2.3892165840
-1.6215703125 4.9564084375 -3.2396578560
-1.7331284375 4.4228993750 -2.3913277600
-0.5409265625 5.1371159375 -3.2054516240
-0.5245328125 4.5867965625 -2.3720033760
0.5035703125 5.3808318750 -3.2532445040
0.5911962500 4.7933846875 -2.4544687600
1.6712353125 5.4942175000 -3.2165385360
1.6527050000 4.9002396875 -2.4752826240
-1.6959334375 6.1023987500 -3.2882408080
-1.6860971875 5.5416250000 -2.4690786160
-0.5065803125 6.2655837500 -3.2597852640
-0.6200465625 5.7171725000 -2.4289662720
0.5900137500 6.4729378125 -3.1970328240
0.5625743750 5.8917525000 -2.3796839120
1.6435809375 6.6204681250 -3.2468332640
1.7220156250 6.0553675000 -2.4403381280
2.2120946875 5.4256996875 -4.0265307120
2.2209768750 6.5604025000 -4.0327606240
0.5749368750 3.0776981250 -3.2193750240
1.6355990625 2.6299606250 -2.4300930960
2.2039246875 2.7147915625 -4.8787334560
2.2275209375 3.2302943750 -4.0072581360
2.2360268750 3.7707506250 -4.8536713360
2.2232881250 4.3394659375 -4.0449614080
2.2269834375 4.8897315625 -4.8676335920
2.2298321875 5.9994675000 -4.8406675280
4.4387153125 2.3268643750 -4.9096887360
6.7121253125 4.3036012500 -4.9175376480
6.6650403125 4.8202865625 -4.0367109840
6.6976800000 5.9514418750 -4.0038517600
6.6927887500 6.4934971875 -4.8350463600
5.6503075000 6.6627290625 -4.8221979760
6.1827953125 6.6409065625 -5.7277189232
6.1895946875 6.6499231250 -2.4323337920
6.6784778125 3.2243012500 -4.8614425360
2.7393015625 2.5949693750 -5.7111416584