ITEM: TIMESTEP
2
ITEM: NUMBER OF ATOMS
2298
ITEM: BOX BOUNDS pp pp pp
-6.71875 6.71875
-6.71875 6.71875
-6.476 6.476
ITEM: ATOMS x y z
-6.7181289779 -6.470011125 -4.822301592 1
-6.1612482812 -6.4996340938 -5.6379706296 1
-5.5832745312 -6.577704625 -4.83938528 1
-5.0326796875 -6.1446019063 -6.4468175898 1
-5.5691624688 -6.017500625 -4.033045568 1
-3.89520875 -6.2773375312 -6.4169858958 1
-4.46409875 -6.2184839688 -4.00663644 1
-3.38125125 -6.371611 -4.051502168 1
-6.7133449269 -5.2968340625 -4.820177464 1
-6.7153254666 -4.7396615625 -4.02017128 1
-6.1893420625 -5.4230672812 -5.6894535344 1
-5.632672125 -5.4677523438 -4.858631952 1
-5.0027409375 -4.991359375 -6.4380097117 1
-5.567645375 -4.9218740625 -4.038122752 1
-5.076606875 -5.5608648125 -5.68003484 1
-4.49957375 -5.708405875 -4.915853888 1
-3.9374159375 -5.1414025 -6.4498640297 1
-4.486001875 -5.152448125 -4.080618264 1
-3.889538125 -5.700536875 -5.6459179768 1
-3.3386275 -5.8093550937 -4.859538592 1
-3.4149659375 -5.248795 -4.059260416 1
-2.7577646875 -5.820453125 -5.6611352816 1
-6.7152244166 -4.2051178125 -4.877839768 1
-6.148742 -3.7094084375 -6.436389546 1
-6.7089175663 -3.6626190625 -4.018837224 1
-6.1571834375 -4.3096346875 -5.6999459496 1
-5.6135989375 -4.3673084375 -4.879394008 1
-5.6155406563 -3.8225790625 -4.059273368 1
-5.022480625 -4.4160059375 -5.6504887376 1
-4.4745665625 -4.58460625 -4.86062656 1
-4.4828171875 -4.0007603125 -4.096898928 1
-3.8644771875 -4.5852646875 -5.6163446752 1
-3.307586875 -4.67066 -4.833790016 1
-2.8038821875 -4.1134471875 -6.4358559236 1
-3.33287625 -4.1018103125 -4.058820048 1
-2.7639728125 -4.71371375 -5.6821758056 1
-6.71290931 -3.1410290625 -4.908691432 1
-6.1909639688 -2.5752028125 -6.440349361 1
-6.1201066875 -3.1465115625 -5.650964076 1
-5.56326475 -3.252600625 -4.847428472 1
-5.6390105938 -2.67734125 -4.066060216 1
-4.9946246875 -3.3362221875 -5.6552783872 1
-4.45356375 -3.385524375 -4.801902192 1
-4.476649375 -2.814914375 -4.01952368 1
-3.9361125 -3.53562125 -5.6789701856 1
-3.3725840625 -3.5238634375 -4.84288232 1
-2.7609090625 -2.97049375 -6.4521510938 1
-3.297374375 -2.9720525 -4.024613816 1
-2.8294671875 -3.539894375 -5.6638552016 1
-6.1694048437 -5.9864089375 -3.294393008 1
-6.158777125 -6.5036290625 -2.399370952 1
-5.0246709375 -6.131671 -3.205891992 1
-3.896095625 -6.2769854688 -3.185311264 1
-2.786749375 -6.346267875 -3.284666056 1
-6.1405115313 -4.8531546875 -3.251560744 1
-6.178653875 -5.4326845 -2.466812016 1
-5.0087071875 -4.978029375 -3.2101532 1
-5.0691490625 -5.5513645 -2.438887504 1
-3.938343125 -5.1385 -3.21054176 1
-3.887173125 -5.7057654063 -2.408217168 1
-2.839693125 -5.2581878125 -3.258308736 1
-2.758315625 -5.808354 -2.426647864 1
-6.1513945625 -3.68354125 -3.203081408 1
-6.1503074688 -4.2870328125 -2.471228648 1
-5.0373559375 -3.876799375 -3.270418856 1
-5.020975625 -4.4178603125 -2.407945176 1
-3.9261821875 -4.076695625 -3.287709776 1
-3.8830478125 -4.5887046875 -2.37850528 1
-2.820020625 -4.1136084375 -3.1874872 1
-2.7566225 -4.70715625 -2.445739112 1
-6.1792921562 -2.563203125 -3.217393368 1
-6.1178854687 -3.1298490625 -2.40706444 1
-5.0681546875 -2.79075375 -3.275224048 1
-4.99504125 -3.3427528125 -2.424666208 1
-3.8931528125 -2.9885671875 -3.27841024 1
-3.939095625 -3.5274109375 -2.436297104 1
-2.74442125 -2.972133125 -3.214181272 1
-2.8292790625 -3.5285128125 -2.42176496 1
-2.2428665625 -5.6829485313 -4.795840656 1
-2.261343125 -5.1193784375 -4.008074112 1
-2.243874375 -4.04345125 -3.99122356 1
-5.0525403125 -2.259515625 -5.687598808 1
-4.4813390625 -2.2665165625 -4.855937936 1
-3.9593459375 -2.407005625 -5.7296332288 1
-3.41995125 -2.4323890625 -4.881246144 1
-2.8343853125 -2.406629375 -5.649720684 1
-5.0379740625 -2.2542884375 -2.438757984 1
-3.9305090625 -2.429956875 -2.468987952 1
-2.8520690625 -2.3910553125 -2.424860488 1
-2.2748746875 -2.4062128125 -4.846042608 1
-2.23282875 -6.3091776875 -4.108024696 1
-2.199315625 -4.579688125 -4.870003808 1
-2.2321703125 -3.5464384375 -4.908846856 1
-2.21036125 -2.9784084375 -4.089904848 1
-1.1057046875 -6.6978607344 -4.890467968 1
-0.565799375 -6.0004094688 -6.4391238427 1
-1.0867040625 -6.1495388438 -4.064570736 1
-0.578430625 -6.6024125594 -5.7301513088 1
-0.017603125 -6.5937606906 -4.917110232 1
0.558865625 -6.0430506875 -6.4452026049 1
-0.00231125 -6.0718983125 -4.001572208 1
0.5697365625 -6.6368331188 -5.703957184 1
1.0793940625 -6.7041926187 -4.83362164 1
1.081315625 -6.1364843125 -4.06602136 1
-1.6979490625 -5.6730894375 -5.6648758192 1
-1.14471375 -5.5718849063 -4.841807304 1
-1.095720625 -4.9910234375 -4.071992232 1
-0.5845984375 -5.4280915625 -5.6497634256 1
0.00241875 -5.545323 -4.888188416 1
0.543708125 -4.902295625 -6.472562047 1
0.0024859375 -4.98203375 -4.0941272 1
0.5711609375 -5.4672148437 -5.6653006448 1
1.13020125 -5.550569 -4.847441424 1
1.6626353125 -5.1605240625 -6.4659744655 1
1.0961909375 -5.00783375 -4.003903568 1
1.6863928125 -5.7073671563 -5.6601690624 1
-1.6658334375 -3.971614375 -6.4122075144 1
-1.6519928125 -4.5818515625 -5.7171449104 1
-1.1305640625 -4.3971396875 -4.832352344 1
-1.1428190625 -3.8465784375 -4.027644584 1
-0.5492846875 -4.3771446875 -5.6154846624 1
0.02047875 -4.3609659375 -4.800969648 1
0.0068665625 -3.7614115625 -4.10112128 1
0.552738125 -4.3606434375 -5.6259978008 1
1.163795 -4.466544375 -4.864071792 1
1.6626353125 -3.9652853125 -6.4152024054 1
1.1484225 -3.9194903125 -4.034949512 1
1.693743125 -4.5720825 -5.7206419504 1
-1.7011203125 -2.8071878125 -6.447700139 1
-1.6548684375 -3.3802434375 -5.6672861864 1
-1.0769753125 -3.291085625 -4.872205648 1
-0.592136875 -2.724238125 -6.4426533922 1
-1.1538915625 -2.750736875 -4.039392048 1
-0.5219259375 -3.3097771875 -5.6881246592 1
8.465625e-04 -3.14416 -4.840602768 1
-0.0089359375 -2.6318284375 -3.989073528 1
0.556823125 -3.289365625 -5.6541645152 1
1.1169653125 -3.358488125 -4.85395628 1
1.1303625 -2.7980771875 -4.08259992 1
1.671705625 -3.3860215625 -5.6531361264 1
-1.681756875 -6.1924555313 -3.287774536 1
-1.7098009375 -6.7154913794 -2.396003432 1
-0.5664309375 -5.9879744063 -3.202796464 1
-0.5780140625 -6.6027759094 -2.480644752 1
0.56948125 -6.0387923437 -3.188251368 1
0.5537190625 -6.6316131875 -2.448523792 1
1.6681984375 -6.2373233437 -3.276752384 1
-1.658214375 -5.121649375 -3.27355324 1
-1.6962559375 -5.6558665937 -2.419576072 1
-0.547605 -4.8758371875 -3.24758448 1
-0.579183125 -5.4383605 -2.405587912 1
0.5176796875 -4.91183625 -3.225449512 1
0.57732875 -5.471454375 -2.403554448 1
1.6777121875 -5.1564121875 -3.250485728 1
1.683154375 -5.69652175 -2.404266808 1
-1.671329375 -3.9623290625 -3.197447288 1
-1.6603778125 -4.55504375 -2.471850344 1
-0.5266425 -3.8402225 -3.279925624 1
-0.5562184375 -4.3618528125 -2.35907728 1
0.56883625 -3.82802125 -3.264603408 1
0.570206875 -4.3786765625 -2.39003256 1
1.681111875 -3.96239625 -3.17090864 1
1.675898125 -4.584203125 -2.472627464 1
-1.7002334375 -2.7946909375 -3.187785096 1
-1.6376684375 -3.38748625 -2.4330332 1
-0.5898390625 -2.735445 -3.232832152 1
-0.52551375 -3.3049665625 -2.425093624 1
0.5961815625 -2.7311853125 -3.2402666 1
0.5325146875 -3.297025 -2.410781664 1
1.6750784375 -2.80188 -3.205607048 1
1.6910421875 -3.3876071875 -2.41833268 1
-1.697855 -2.252796875 -5.6052085456 1
1.6393884375 -2.2842675 -5.6221057248 1
1.6692196875 -2.265051875 -2.350943424 1
2.23153875 -6.309089 -4.096303136 1
2.2226296875 -5.6888811875 -4.784676032 1
2.2330034375 -4.57923125 -4.855419856 1
2.2370078125 -4.02958375 -3.983983392 1
2.2095684375 -2.985140625 -4.056203744 1
2.2152390625 -2.41665375 -4.855937936 1
6.6939309375 -5.8853737187 -4.067459032 1
6.714315625 -2.5878475 -4.078377568 1
3.880078125 -6.21058675 -6.3948558495 1
3.36082625 -6.3545843438 -4.02075412 1
4.4672834375 -6.6922840375 -4.870871592 1
5.0343459375 -6.0951855 -6.4403200894 1
4.4456490625 -6.1676203438 -3.998826384 1
5.0401375 -6.674953425 -5.6821252928 1
5.5688225 -6.5144422188 -4.834049056 1
5.544178125 -5.9496506563 -4.042345104 1
6.1520234375 -6.477589875 -5.6213311952 1
2.2568953125 -5.1179809375 -4.00696024 1
2.7553996875 -5.7725739687 -5.6293549592 1
3.348060625 -5.806596375 -4.852155952 1
3.938934375 -5.0618928125 -6.4667152422 1
3.405680625 -5.228343125 -4.083118 1
3.8843109375 -5.624824625 -5.6556345672 1
4.49172625 -5.6457105312 -4.913509576 1
5.018019375 -4.909605625 -6.4221462316 1
4.4984046875 -5.106169375 -4.064894536 1
5.05706875 -5.500533125 -5.6935981744 1
5.6288209375 -5.40242325 -4.873980072 1
5.5836171875 -4.8640928125 -4.019769768 1
6.1852140625 -5.395462625 -5.68275476 1
2.804701875 -4.135014375 -6.446706073 1
2.79408625 -4.7117115625 -5.6587961504 1
3.3341259375 -4.6164128125 -4.791475832 1
3.3571175 -4.031653125 -4.043640304 1
3.8738296875 -4.5340678125 -5.5997544584 1
4.48925375 -4.5325628125 -4.847454376 1
4.521100625 -3.94777625 -4.090125032 1
5.0244290625 -4.3274796875 -5.6553858888 1
5.6240103125 -4.334265625 -4.89702168 1
6.1550334375 -3.63624125 -6.432659629 1
5.651839375 -3.7851825 -4.058612816 1
6.1724484375 -4.2483596875 -5.7108010208 1
2.2798465625 -3.5364946875 -4.908769144 1
2.7667678125 -2.9504046875 -6.4174947798 1
2.8465059375 -3.55529375 -5.6911295232 1
3.376575 -3.4582615625 -4.83329784 1
3.287054375 -2.9137875 -3.99776432 1
3.9496978125 -3.4950534375 -5.6711160928 1
4.4578234375 -3.3309815625 -4.778303648 1
4.4555525 -2.7465040625 -4.016130256 1
4.9999728125 -3.25171375 -5.6302136768 1
5.5791290625 -3.2130003125 -4.843426304 1
6.18947375 -2.50856625 -6.4561588312 1
5.62724875 -2.6403075 -4.0633662 1
6.1289646875 -3.0829790625 -5.6516997496 1
2.767668125 -6.31223875 -3.2551614 1
3.8957596875 -6.2210102188 -3.170105616 1
5.017374375 -6.0852887813 -3.187331776 1
5.0528896875 -6.6752305063 -2.45259072 1
6.1352534375 -5.9681272188 -3.270483616 1
6.1641709375 -6.4953529062 -2.388296992 1
2.8483871875 -5.23369125 -3.260368104 1
2.7472296875 -5.7813419375 -2.403424928 1
3.9308853125 -5.0831778125 -3.226667 1
3.87295625 -5.6436774375 -2.410470816 1
5.0123353125 -4.9181653125 -3.198120792 1
5.055160625 -5.4888559375 -2.43698356 1
6.1451165625 -4.832689375 -3.236381 1
6.195359375 -5.410835125 -2.454507616 1
2.8220496875 -4.12214125 -3.207420328 1
2.7721428125 -4.6988384375 -2.41418804 1
3.9472521875 -4.0367996875 -3.2894842 1
3.882980625 -4.546685625 -2.371303968 1
5.059944375 -3.799265 -3.266313072 1
5.017159375 -4.343510625 -2.416804344 1
6.16958625 -3.637558125 -3.192758664 1
6.1471859375 -4.25393625 -2.477950736 1
2.75415 -2.953051875 -3.185596208 1
2.8569603125 -3.544516875 -2.432696448 1
3.903298125 -2.9441428125 -3.250161928 1
3.953339375 -3.492056875 -2.433538328 1
5.0683025 -2.7373128125 -3.279213264 1
5.0160171875 -3.2698946875 -2.403658064 1
6.182755 -2.5168571875 -3.225915784 1
6.1320553125 -3.0769725 -2.410794616 1
2.787475 -2.379431875 -5.6385806688 1
3.3885478125 -2.4036596875 -4.903873288 1
3.9549115625 -2.358765 -5.7014004592 1
2.8246028125 -2.3808025 -2.415379624 1
3.955220625 -2.3715709375 -2.46534844 1
-6.1617306875 -2.0108546875 -5.6332185408 1
-5.5865344688 -2.10683875 -4.839372328 1
-6.1711638125 -2.0176540625 -2.387299688 1
-5.03116125 -1.673963125 -6.4532136759 1
-5.5626560313 -1.5396015625 -4.058742336 1
-3.8993878125 -1.784285 -6.412891639 1
-4.466490625 -1.7246225 -4.005898176 1
-3.380901875 -1.889205 -4.031102768 1
-6.7158734881 -0.8306659375 -4.802044664 1
-6.1939685938 -0.945381875 -5.6958777264 1
-5.6446341875 -0.9624475 -4.84877548 1
-5.0055628125 -0.52981375 -6.4283643573 1
-5.5609440937 -0.4271646875 -4.019834528 1
-5.08620125 -1.099751875 -5.6679674616 1
-4.4971146875 -1.2159459375 -4.919972624 1
-3.9403721875 -0.6517590625 -6.4602188946 1
-4.475950625 -0.66816625 -4.07327448 1
-3.890290625 -1.209375 -5.6451188384 1
-3.322959375 -1.346088125 -4.866221824 1
-3.421751875 -0.7797915625 -4.077302552 1
-2.755225 -1.3200059375 -5.6724605104 1
-6.6993848156 0.2474784375 -4.871480336 1
-6.1742208437 0.796010625 -6.4247225139 1
-6.155896125 0.175413125 -5.714798008 1
-5.6160109688 0.1186128125 -4.8712472 1
-5.6478229063 0.6737025 -4.038589024 1
-5.0334053125 0.0573109375 -5.6631480224 1
-4.493580625 -0.0935115625 -4.854072848 1
-4.494655625 0.47885875 -4.071707288 1
-3.891365625 -0.1043690625 -5.6172487248 1
-3.323711875 -0.1985121875 -4.843737152 1
-2.794650625 0.36856375 -6.4479120338 1
-3.331613125 0.3599771875 -4.057524848 1
-2.7800440625 -0.226314375 -5.6879847776 1
-6.7143010319 1.32445375 -4.910996888 1
-6.1779188437 1.908635625 -6.456983226 1
-6.7027892063 1.8847034375 -4.104708984 1
-6.1122968125 1.35218875 -5.6349903744 1
-5.5423761563 1.2130971875 -4.863709136 1
-5.6355195312 1.7920653125 -4.07074884 1
-4.982436875 1.139365625 -5.6797097448 1
-4.4537653125 1.0800390625 -4.797602128 1
-4.4931909375 1.656494375 -4.005626184 1
-3.94777625 0.9467121875 -5.7099397128 1
-3.3996875 0.9430034375 -4.836756024 1
-3.299954375 1.486375625 -4.016570624 1
-2.86009125 0.9441859375 -5.6682809 1
-6.1505842812 -1.5031725 -3.286790184 1
-5.0365496875 -1.665739375 -3.196592456 1
-3.9168028125 -1.80895625 -3.181516328 1
-2.7867359375 -1.856444375 -3.269939632 1
-6.1534787187 -0.390681875 -3.264370272 1
-6.2003231875 -0.95035375 -2.447228592 1
-5.002270625 -0.5238340625 -3.201047944 1
-5.093054375 -1.0880075 -2.425158384 1
-3.93283375 -0.6733396875 -3.1816588 1
-3.88779125 -1.252778125 -2.39184584 1
-2.8669578125 -0.7647415625 -3.247118208 1
-2.7387371875 -1.3133409375 -2.415845896 1
-6.1833126563 0.77738625 -3.178174712 1
-6.1539463438 0.1601884375 -2.465516816 1
-5.05502625 0.59162625 -3.269253176 1
-5.0487778125 0.05122375 -2.413877192 1
-3.9224734375 0.3869865625 -3.2855986 1
-3.9159159375 -0.1151728125 -2.36995696 1
-2.8199803125 0.3690878125 -3.176516856 1
-2.7431715625 -0.2265159375 -2.42565056 1
-6.1853390312 1.8969584375 -3.2124198 1
-6.1255838125 1.3318846875 -2.392286208 1
-5.0895471875 1.692775625 -3.255912616 1
-4.9998115625 1.1278765625 -2.435144376 1
-3.9001403125 1.5007940625 -3.289523056 1
-3.9592115625 0.9520603125 -2.4566706 1
-2.726280625 1.517066875 -3.239515384 1
-2.8777346875 0.962581875 -2.433395856 1
-2.2828834375 -0.649111875 -3.99808812 1
-2.2537778125 0.4206609375 -4.018254384 1
-2.2628615625 0.93240125 -4.925684456 1
-5.035273125 2.23127 -5.7030233448 1
-4.474230625 2.180556875 -4.875793352 1
-3.9214253125 2.052900625 -5.7164727016 1
-3.3962340625 2.0354184375 -4.85492768 1
-2.8215121875 2.0489903125 -5.6624563856 1
-3.9289234375 2.042419375 -2.467084008 1
-2.834103125 2.06889125 -2.412387712 1
-2.279671875 2.083376875 -4.826264904 1
-1.0844465625 -2.2008071875 -4.883020568 1
-0.5533159375 -2.11995375 -5.7236144344 1
0.0041925 -2.0820734375 -4.885455544 1
0.561123125 -2.171473125 -5.7366273088 1
1.0588346875 -2.18552875 -4.824723616 1
-1.6936625 -2.2345890625 -2.366990952 1
-0.5436946875 -2.162066875 -2.470827136 1
0.536236875 -2.1881490625 -2.428616568 1
-2.2391578125 -1.818658125 -4.094036536 1
-2.22422875 -1.20228 -4.804842296 1
-2.207163125 -0.12002375 -4.88374588 1
-2.1881759375 1.4888346875 -4.101989064 1
-0.577893125 -1.52392 -6.4618094002 1
-1.1054225 -1.6528125 -4.066008408 1
0.57964 -1.5644071875 -6.4541017946 1
-0.031631875 -1.5586559375 -3.994034144 1
1.1147884375 -1.6367546875 -4.032074168 1
-1.6911496875 -1.1954940625 -5.686698644 1
-1.146729375 -1.0664403125 -4.83582348 1
-1.084916875 -0.5061771875 -4.031025056 1
-0.5921503125 -0.9742321875 -5.6483788568 1
0.0048509375 -1.0409359375 -4.895881904 1
0.0203578125 -0.4863165625 -4.084102352 1
0.5657590625 -0.999535 -5.678208608 1
1.142375625 -1.086583125 -4.872840296 1
1.058418125 -0.5410609375 -4.022981864 1
1.69253375 -1.2300015625 -5.6867880128 1
-1.6938775 0.53056625 -6.4286524098 1
-1.661439375 -0.0844278125 -5.7476067192 1
-1.1523059375 0.0495171875 -4.839242808 1
-1.1553696875 0.613099375 -4.018332096 1
-0.57808125 0.094815 -5.6662526168 1
-0.0353809375 0.1156565625 -4.832727952 1
0.00317125 0.6927165625 -4.08402464 1
0.53561875 0.10475875 -5.61692622 1
1.14939 0.0074175 -4.884380528 1
1.6775240625 0.5292896875 -6.42799665 1
1.1229315625 0.5349871875 -4.048419592 1
1.6856940625 -0.0839440625 -5.7254549136 1
-1.6551103125 1.6737615625 -6.4616059243 1
-1.6635759375 1.10816375 -5.6534003472 1
-1.072984375 1.1309 -4.895350872 1
-0.5778125 1.781033125 -6.4558698721 1
-1.14288625 1.697774375 -4.084685192 1
-0.5209046875 1.1841259375 -5.7129769568 1
0.0111665625 1.2957646875 -4.845058256 1
0.58539125 1.760823125 -6.4730974827 1
-0.0353003125 1.8324584375 -4.007685552 1
0.5493653125 1.175539375 -5.6975550104 1
1.0945784375 1.1244903125 -4.842791656 1
1.1413678125 1.684390625 -4.054390464 1
1.6688165625 1.1000340625 -5.6347520576 1
-1.6889996875 -1.72392375 -3.26403352 1
-0.5940046875 -1.546629375 -3.18211212 1
0.5540953125 -1.6014946875 -3.236614136 1
1.7147728125 -1.7634165625 -3.28650524 1
-1.670899375 -0.635136875 -3.2894842 1
-1.6967128125 -1.154791875 -2.422762264 1
-0.5189428125 -0.4138615625 -3.225009144 1
-0.5892075 -0.981045 -2.416765488 1
0.5286178125 -0.4170059375 -3.15562528 1
0.58926125 -1.067045 -2.463431544 1
1.65254375 -0.6414390625 -3.249099864 1
1.6370503125 -1.220958125 -2.438460088 1
-1.709223125 0.527583125 -3.19869068 1
-1.6558090625 -0.0681415625 -2.46910452 1
-0.553625 0.66048 -3.281622336 1
-0.614496875 0.141685 -2.3922344 1
0.5548209375 0.6498509375 -3.255834904 1
0.5518109375 0.141765625 -2.363817712 1
1.6611840625 0.530405 -3.173382472 1
1.6888115625 -0.0821703125 -2.463444496 1
-1.67576375 1.66619625 -3.188808304 1
-1.6675265625 1.0885046875 -2.39534288 1
-0.61065375 1.7789771875 -3.211927624 1
-0.5066340625 1.1986115625 -2.44300624 1
0.558220625 1.7374553125 -3.279200312 1
0.5558690625 1.2112428125 -2.402583048 1
1.6912840625 1.6228603125 -3.228182384 1
1.641390625 1.0851453125 -2.367781024 1
2.2195121875 -1.21233125 -4.791929152 1
2.223745 -0.6530490625 -3.992661232 1
2.2333125 -0.129456875 -4.863514856 1
2.195069375 0.43102125 -4.006843672 1
2.227265625 1.485246875 -4.093453696 1
-1.7126496875 2.2189478125 -5.6134084568 1
1.684955 2.18112125 -5.6056566848 1
1.6584025 2.1775065625 -2.382105936 1
6.705554375 -2.0008571875 -4.849863448 1
4.4772003125 -2.1981734375 -4.840214208 1
5.045539375 -2.1917234375 -5.686070472 1
5.5609615625 -2.0496621875 -4.811952944 1
6.1236434375 -1.9744525 -5.6284366624 1
5.043685 -2.1879071875 -2.440636024 1
6.1398221875 -1.9729475 -2.394669376 1
6.710821875 -1.43749 -4.064285792 1
6.694025 -0.2777665625 -4.002569512 1
6.71009625 0.803481875 -4.02988528 1
2.2691771875 -1.847925 -4.105615624 1
3.8952490625 -1.74811125 -6.4013889678 1
3.3624790625 -1.8681753125 -4.04374392 1
4.9988978125 -1.5994925 -6.4415443125 1
4.4321846875 -1.653215625 -3.990433488 1
5.55447125 -1.4868325 -4.028188568 1
2.750253125 -1.3049828125 -5.6542305704 1
3.330135 -1.3023759375 -4.850601712 1
3.4041890625 -0.7343325 -4.066099072 1
3.86951625 -1.15643125 -5.6430659464 1
4.49651 -1.1564178125 -4.929479392 1
5.0127921875 -0.43489125 -6.4279470438 1
4.49075875 -0.606971875 -4.089555144 1
5.071339375 -1.016708125 -5.6722286696 1
5.646571875 -0.9350753125 -4.856365352 1
5.53926 -0.3879003125 -4.030701256 1
6.1959775 -0.8991165625 -5.6918768536 1
2.7915196875 0.3744896875 -6.4472855455 1
2.7903909375 -0.22386875 -5.6859241144 1
3.31814875 -0.142141875 -4.804039272 1
3.3047246875 0.436100625 -4.030286792 1
3.865189375 -0.073933125 -5.6387581112 1
4.45066125 -0.023730625 -4.845718808 1
4.5090740625 0.550641875 -4.061397496 1
5.0068259375 0.1317278125 -5.6357830368 1
5.612225625 0.141550625 -4.890519776 1
6.169505625 0.8261375 -6.4488412102 1
5.6489234375 0.708828125 -4.08693884 1
6.1669928125 0.23945625 -5.6827910256 1
2.26497125 0.9300765625 -4.911540872 1
2.74463625 1.5103884375 -6.4548578028 1
2.850120625 0.9474378125 -5.6643914144 1
3.4148046875 0.977363125 -4.861092832 1
3.290171875 1.52494125 -4.026491856 1
3.9636325 0.9850628125 -5.7204593272 1
4.462190625 1.1527628125 -4.789727312 1
4.4563990625 1.7169496875 -3.983555976 1
5.006785625 1.1899175 -5.6696784208 1
5.548639375 1.286801875 -4.829697184 1
6.21430625 1.9112559375 -6.4715975504 1
5.6360234375 1.8718975 -4.05423504 1
6.1191821875 1.3718075 -5.626329372 1
2.7943146875 -1.817260625 -3.21617588 1
3.8817309375 -1.7495221875 -3.161078072 1
5.0135446875 -1.6115459375 -3.20264104 1
6.1437190625 -1.4455659375 -3.2681134 1
2.84385875 -0.7673753125 -3.281738904 1
2.6831865625 -1.26457625 -2.365009296 1
3.94487375 -0.6186759375 -3.203249784 1
3.853015 -1.18341375 -2.385978584 1
4.997916875 -0.4436390625 -3.167916728 1
5.06298125 -1.02549625 -2.42616864 1
6.1108375 -0.32868125 -3.238349704 1
6.1828759375 -0.892545625 -2.439496248 1
2.7911434375 0.3571284375 -3.209984824 1
2.7484390625 -0.2315415625 -2.434017552 1
3.938155 0.42553875 -3.306956448 1
3.825951875 -0.0824525 -2.379114024 1
5.08147125 0.6530490625 -3.256352984 1
4.98848375 0.1184515625 -2.376808568 1
6.1540659375 0.8256134375 -3.188147752 1
6.1581240625 0.2331675 -2.435584744 1
2.741008125 1.525666875 -3.186347424 1
2.8447321875 0.9290015625 -2.445195128 1
3.8671109375 1.5466696875 -3.241587704 1
3.952775 0.9697171875 -2.469221088 1
5.07469875 1.7297421875 -3.278449096 1
4.9870190625 1.18749875 -2.413644056 1
6.2048328125 1.911914375 -3.241989216 1
6.119088125 1.37772 -2.378984504 1
2.2652265625 2.087515625 -4.8281818 1
2.802121875 2.084989375 -5.6629628088 1
3.39780625 2.056663125 -4.894094528 1
3.949845625 2.1281909375 -5.702370564 1
4.50537875 2.235704375 -4.87325476 1
2.815855 2.0987359375 -2.40628732 1
3.9711440625 2.1223590625 -2.478520624 1
-5.0543678125 6.7052721875 -5.7066874656 1
-4.4946959375 6.6779671875 -4.869226688 1
-3.953769375 6.5486715625 -5.717232984 1
-3.4118215625 6.51251125 -4.867024848 1
-2.83880625 6.5608996875 -5.64198834 1
-5.0595815625 6.708134375 -2.477031144 1
-3.94820625 6.546884375 -2.485307472 1
-2.84127875 6.56142375 -2.404681272 1
-2.2682903125 6.534199375 -4.8372482 1
-6.7151818063 2.49469875 -4.837416576 1
-6.7152819559 3.055795 -4.049390992 1
-6.150349125 2.4645046875 -5.6337068312 1
-5.5677380938 2.3714903125 -4.848114928 1
-4.9921253125 2.8271425 -6.4364502909 1
-5.5412904062 2.92684875 -4.053367256 1
-3.8866759375 2.67804 -6.4242483412 1
-4.4465090625 2.7305403125 -4.027825912 1
-3.3874325 2.6048728125 -4.058470344 1
-6.7080850728 3.64903375 -4.820112704 1
-6.18326025 3.5336190625 -5.707570792 1
-5.6495415625 3.50638125 -4.845420912 1
-4.9961028125 3.9705125 -6.4544963125 1
-5.5579515625 4.0495384375 -4.03901644 1
-5.0820625 3.4081128125 -5.662821632 1
-4.498015 3.252305 -4.925036856 1
-3.9431134375 3.7797940625 -6.4493332567 1
-4.475574375 3.8017240625 -4.100642056 1
-3.8726875 3.2267603125 -5.6148331768 1
-3.2916903125 3.156011875 -4.87649276 1
-3.415086875 3.711545 -4.071150352 1
-2.727516875 3.1227675 -5.6780959256 1
-6.7141440953 4.7094809375 -4.898096696 1
-6.1570584687 5.27916375 -6.4346788458 1
-6.6949711344 5.252315625 -4.027307832 1
-6.1561070938 4.672783125 -5.7039986304 1
-5.6073061562 4.5951815625 -4.882865144 1
-5.6328293438 5.1541009375 -4.078403472 1
-5.013665625 4.5279940625 -5.6381234632 1
-4.4557003125 4.39632 -4.845654048 1
-4.5079990625 4.982006875 -4.087664152 1
-3.8776728125 4.3451365625 -5.6375833648 1
-3.310059375 4.302123125 -4.85188396 1
-2.8063546875 4.8445815625 -6.418428101 1
-3.3404415625 4.8419209375 -4.030584688 1
-2.7703690625 4.2334171875 -5.6971198232 1
-6.1963255313 6.386548125 -6.462931691 1
-6.1514120313 5.83741125 -5.6311112504 1
-5.5696529375 5.7268609375 -4.861442536 1
-5.6543669687 6.29353375 -4.059376984 1
-5.013880625 5.6019728125 -5.6653135968 1
-4.461760625 5.5798278125 -4.815501792 1
-4.48662 6.1440146875 -4.01110488 1
-3.9520225 5.4251621875 -5.700926416 1
-3.4011790625 5.4101390625 -4.847946552 1
-2.757831875 6.01553875 -6.4675297547 1
-3.306995625 5.9615065625 -4.033654312 1
-2.8594865625 5.442536875 -5.6871545544 1
-6.1235829688 2.96071125 -3.295597544 1
-6.1703898125 2.4547221875 -2.393192848 1
-5.005388125 2.8373684375 -3.210101392 1
-5.0476625 2.2497734375 -2.459403472 1
-3.9032040625 2.664629375 -3.172605352 1
-2.8026190625 2.5968775 -3.288629368 1
-6.1316091875 4.094916875 -3.262246144 1
-6.1725881875 3.525704375 -2.464869216 1
-4.9937109375 3.9701228125 -3.223856416 1
-5.0725353125 3.415893125 -2.424510784 1
-3.93724125 3.7896975 -3.205516384 1
-3.8769203125 3.2325921875 -2.391146432 1
-2.851786875 3.68719625 -3.241509992 1
-2.7261059375 3.131045 -2.432916632 1
-6.1524211875 5.272794375 -3.183938352 1
-6.1511002812 4.657034375 -2.473521152 1
-5.0633978125 5.061771875 -3.263554296 1
-5.02438875 4.523519375 -2.396715792 1
-3.942455 4.858355 -3.297631008 1
-3.8840153125 4.35977 -2.38698884 1
-2.8063546875 4.8597525 -3.189093248 1
-2.76796375 4.254769375 -2.462421288 1
-6.210527625 6.3823959375 -3.228234192 1
-6.1559458437 5.8350596875 -2.391768128 1
-5.093699375 6.15335375 -3.27471892 1
-5.0027946875 5.6062728125 -2.432217224 1
-3.905394375 5.978209375 -3.278708136 1
-3.9469296875 5.4230525 -2.46515416 1
-2.75721375 6.0102846875 -3.233505656 1
-2.858774375 5.448019375 -2.43491124 1
-2.28905125 3.831273125 -4.012607312 1
-2.24675 4.897458125 -4.008980752 1
-2.2807871875 5.3962715625 -4.921591624 1
-1.7176753125 6.7072878125 -5.6315580944 1
1.663374375 6.69278875 -5.6032204136 1
1.671651875 6.6915928125 -2.351280176 1
-2.2251828125 2.6649653125 -4.06731656 1
-2.202809375 3.26676375 -4.806798048 1
-2.205066875 4.354368125 -4.889418856 1
-2.2056178125 5.9568303125 -4.091977168 1
-1.101633125 2.2550678125 -4.893576448 1
-0.532555 2.955094375 -6.4594631454 1
-1.06296 2.806099375 -4.078364616 1
-0.558220625 2.3625409375 -5.7003979744 1
0.02112375 2.3516296875 -4.91282312 1
0.559725625 2.9269696875 -6.4481357148 1
0.017226875 2.8906346875 -4.022191792 1
0.5902690625 2.329068125 -5.7076122384 1
1.0986096875 2.2645546875 -4.831497512 1
1.101633125 2.840176875 -4.05902728 1
-1.6734928125 3.2741409375 -5.6972441624 1
-1.1368528125 3.401864375 -4.824956752 1
-1.09784375 3.9720175 -4.0322814 1
-0.5853240625 3.5018528125 -5.6494655296 1
-0.0015990625 3.4248290625 -4.882165736 1
0.046251875 3.9948209375 -4.111573544 1
0.5812928125 3.4864265625 -5.6394329104 1
1.1644534375 3.40371875 -4.857764168 1
1.6859090625 3.795206875 -6.4648104952 1
1.12654625 3.9620871875 -4.039780608 1
1.69317875 3.224704375 -5.6907759336 1
-1.666975625 4.988456875 -6.4301241455 1
-1.6470478125 4.3832453125 -5.7108126776 1
-1.1222328125 4.5387440625 -4.835706912 1
-1.1753915625 5.1106440625 -4.053678104 1
-0.545750625 4.561574375 -5.6412086296 1
-0.00467625 4.6217071875 -4.797019288 1
-0.01832875 5.2140859375 -4.068313864 1
0.5311978125 4.5599753125 -5.6487479888 1
1.1298115625 4.5215575 -4.874083688 1
1.68038625 5.0153721875 -6.4047980638 1
1.1332784375 5.0521103125 -4.011454584 1
1.660471875 4.3902328125 -5.73184284 1
-1.6913646875 6.14088375 -6.443827232 1
-1.6814478125 5.5637565625 -5.6563171376 1
-1.09558625 5.6535459375 -4.88704864 1
-0.5844103125 6.225755 -6.4452127074 1
-1.1326065625 6.2003178125 -4.044495136 1
-0.5364653125 5.6398396875 -5.6820372192 1
0.004488125 5.7948546875 -4.847337808 1
-0.0165415625 6.3232575 -3.995160968 1
0.5374328125 5.6601840625 -5.6966988832 1
1.0829415625 5.5918678125 -4.867996248 1
1.11676375 6.1467290625 -4.057291712 1
1.6647315625 5.6073209375 -5.6532151336 1
-1.646711875 2.7377159375 -3.295817728 1
-1.7244209375 2.2399103125 -2.38465748 1
-0.5490965625 2.9539790625 -3.2036772 1
-0.534033125 2.3661825 -2.450790392 1
0.5728271875 2.8934834375 -3.198574112 1
0.576871875 2.2850603125 -2.458950152 1
1.6907465625 2.6853634375 -3.285779928 1
-1.6749171875 3.83457875 -3.292372496 1
-1.6724446875 3.2958021875 -2.458380264 1
-0.5041346875 4.04850375 -3.284938048 1
-0.5941121875 3.5218075 -2.40868344 1
0.5548075 4.0187128125 -3.218403624 1
0.5658665625 3.4507365625 -2.406662928 1
1.668319375 3.7925596875 -3.238362656 1
1.701751875 3.2323771875 -2.432139512 1
-1.6847803125 5.0070946875 -3.179534672 1
-1.6544115625 4.3849653125 -2.477406752 1
-0.58265 5.1075534375 -3.275198144 1
-0.567465625 4.573130625 -2.397829664 1
0.53809125 5.0891709375 -3.267698936 1
0.5465703125 4.5666134375 -2.379010408 1
1.6777928125 5.0065975 -3.171064064 1
1.6898328125 4.378394375 -2.496316672 1
-1.7005828125 6.159239375 -3.210528808 1
-1.6816359375 5.5836575 -2.418501056 1
-0.594905 6.239058125 -3.208870952 1
-0.5220334375 5.6565559375 -2.434755816 1
0.5676 6.2352015625 -3.237196976 1
0.542848125 5.6590015625 -2.4521374 1
1.67597875 6.163808125 -3.22951644 1
1.6406246875 5.59306375 -2.427386128 1
2.2171203125 4.3506996875 -4.895700576 1
2.2081575 4.8800296875 -4.01421336 1
2.205013125 5.9434465625 -4.07288592 1
2.2402328125 6.53745125 -4.821291336 1
2.78290625 6.5774278125 -5.6540997552 1
3.3780934375 6.5556321875 -4.90025968 1
3.933398125 6.595420625 -5.721953988 1
2.79559125 6.5751971875 -2.41237476 1
3.91859 6.59378125 -2.473624768 1
6.708403125 4.1947575 -3.997168528 1
6.6946296875 5.7867384375 -4.888564024 1
6.6969678125 6.3575365625 -4.103413784 1
2.2543690625 2.6644546875 -4.080877304 1
3.92117 2.7459934375 -6.4167986098 1
3.4104509375 2.602279375 -4.04704668 1
5.018610625 2.8857434375 -6.4304612861 1
4.476918125 2.78365875 -4.019342352 1
5.0689609375 2.28324625 -5.694463368 1
5.5890325 2.4472509375 -4.81930968 1
5.5658528125 3.011075 -4.016790808 1
6.153756875 2.46105125 -5.6361573496 1
2.2409584375 3.274745625 -4.809777008 1
2.27249625 3.8262609375 -3.997777272 1
2.756111875 3.1700675 -5.6665168376 1
3.3344484375 3.1530690625 -4.859085272 1
3.4196959375 3.725976875 -4.078377568 1
3.8924003125 3.310328125 -5.630480488 1
4.5009040625 3.298180625 -4.912408656 1
5.00815625 4.041355 -6.4342187908 1
4.516263125 3.8579734375 -4.094179008 1
5.0748734375 3.4728278125 -5.6663730704 1
5.6604125 3.5405528125 -4.883564552 1
5.5843696875 4.08591375 -4.040907432 1
6.2039996875 3.5594728125 -5.7069516864 1
2.794005625 4.8560975 -6.4449518542 1
2.8025115625 4.268905625 -5.6671877512 1
3.33739125 4.3276946875 -4.815242752 1
3.315434375 4.9009115625 -4.063288488 1
3.8975871875 4.3933234375 -5.6116767744 1
4.4882996875 4.4516959375 -4.826394424 1
4.4850075 5.0386190625 -4.069414784 1
5.0227225 4.613658125 -5.6510702824 1