ITEM: TIMESTEP
24000
# source: voids-relax.24000.cfg
ITEM: NUMBER OF ATOMS
2298
ITEM: BOX BOUNDS pp pp pp
-6.7187500000 6.7187500000
-6.7187500000 6.7187500000
-6.4760000000 6.4760000000
ITEM: ATOMS x y z
-5.6429545000 -6.2784286563 -4.0760462080
-4.4647168750 -6.3749435000 -4.0304292640
-3.3132037500 -6.5610421250 -4.0494946080
-6.6958151438 -5.5470886875 -4.8574662720
-6.1284675000 -5.6015979063 -5.6613463992
-5.5754297188 -5.6654542500 -4.7916183040
-4.9941543750 -5.1894684375 -6.4297717216
-5.5515338125 -5.0873971875 -4.0348977040
-5.0811084375 -5.7908583750 -5.7112491600
-4.5192328125 -5.8293433750 -4.8714414800
-3.9363812500 -5.3836900313 -6.4400537963
-4.4366996875 -5.2727271875 -4.0362706160
-3.9467415625 -5.9603240625 -5.6475084824
-3.3667521875 -6.0179548125 -4.8749255680
-3.4033962500 -5.4540635625 -4.0792064960
-2.7853921875 -6.0217240313 -5.6320956024
-6.1158604375 -3.9063081250 -6.4289863123
-6.6738225250 -3.8090878125 -4.0287066480
-6.2317911250 -4.5057953125 -5.6968361744
-5.6738862813 -4.5530550000 -4.8785391760
-5.0748868750 -4.0880906250 -6.4475135007
-5.5736452188 -3.9839500000 -4.0695572560
-5.0728040625 -4.6334381250 -5.6119202720
-4.4625400000 -4.7391643750 -4.9253736080
-3.9711575000 -4.2787015625 -6.4684925027
-4.5317565625 -4.2178834375 -4.0620969040
-3.8566834375 -4.8277443750 -5.6445489504
-3.3030584375 -4.8702471875 -4.8417425440
-3.3907246875 -4.3221987500 -4.0144724000
-2.7625484375 -4.9681528125 -5.6851819648
-6.1629158750 -3.3477246875 -5.6200152720
-5.5762359688 -3.4423784375 -4.8992105680
-5.6853740000 -2.8943971875 -4.0531729760
-4.9836462500 -3.5128850000 -5.6478335776
-4.4378956250 -3.6220378125 -4.8100878560
-4.5097190625 -3.0549753125 -4.0140061280
-3.9243950000 -3.6893328125 -5.7146814400
-3.3856184375 -3.7665312500 -4.8450971120
-2.7640803125 -3.2656215625 -6.4248709438
-3.3202450000 -3.2096678125 -4.0230854800
-2.8257584375 -3.8502065625 -5.6713673616
-6.1569335000 -6.1097947500 -3.2115649680
-5.0687190625 -6.3342359375 -3.2858705920
-3.9114950000 -6.5271594688 -3.2634765840
-2.7803262500 -6.5691986875 -3.2223021760
-6.1556959063 -5.0482000000 -3.3058555280
-6.1629535000 -5.5554347188 -2.4011324240
-5.0093790625 -5.2575831250 -3.2253718000
-5.0527553125 -5.8004594688 -2.4042927120
-3.8988637500 -5.3779226563 -3.1544855040
-3.9311137500 -5.9911295313 -2.4468788880
-2.8263093750 -5.4717661250 -3.2724652720
-2.7777865625 -6.0154218438 -2.4084114480
-6.1354523125 -3.9660512500 -3.2238823200
-6.1868440313 -4.5176203125 -2.4018188800
-5.0510487500 -4.0811434375 -3.1744704400
-5.0781387500 -4.6835868750 -2.4484460800
-3.9593190625 -4.2222506250 -3.2427274800
-3.9111456250 -4.7752306250 -2.4374627840
-2.8032775000 -4.4078225000 -3.2550577840
-2.7726131250 -4.9371793750 -2.3929597120
-6.2004118750 -2.7955509375 -3.1742761600
-6.1752017813 -3.3931434375 -2.4399754720
-5.1035087500 -2.9624984375 -3.2736827600
-4.9906068750 -3.4972571875 -2.4224902720
-3.9220837500 -3.1297281250 -3.2913492880
-3.8985950000 -3.6662875000 -2.4157293280
-2.7823553125 -3.2423746875 -3.1811018640
-2.8225334375 -3.8436356250 -2.4573441040
-2.2544093750 -4.2880271875 -4.0800613280
-5.5603676250 -2.3132790625 -4.8111110640
-5.0507396875 -2.4179571875 -5.7378046456
-4.5306143750 -2.4975206250 -4.8134942320
-3.9851190625 -2.5702981250 -5.6510379024
-3.4073065625 -2.6705956250 -4.8718300400
-2.8343584375 -2.6732562500 -5.6504213872
-5.0395193750 -2.4137781250 -2.4473451600
-3.9681340625 -2.5985975000 -2.4325021680
-2.8308512500 -2.6492300000 -2.4257023680
-2.2515471875 -5.5050239375 -4.0625113680
-2.2607384375 -3.7482428125 -4.8933951200
-2.2556187500 -3.1963781250 -4.0432646960
-2.2481743750 -2.6521190625 -4.9058290400
-6.1344001563 -6.6800896406 -5.6357933984
-6.1611555625 -6.7127002763 -2.4744148400
-3.8726471875 -6.5058758125 -6.4620285481
-2.7979159375 -6.5796235000 -6.4702452062
-6.2364458750 -2.8039628125 -6.4621039287
-2.2249275000 -4.9138787500 -4.7931984480
-1.6939984375 -6.4736876250 -6.4759938773
-2.2096490625 -6.6396291938 -4.0334211760
-1.0955728125 -6.4094133750 -4.0353769280
0.6031825000 -6.1845945938 -6.4444854526
-0.0018275000 -6.2030832500 -4.0501292560
1.1301743750 -6.5967950125 -4.8522336640
1.6543846875 -5.9997402813 -6.4628612322
1.0920253125 -6.0308843750 -4.0574341840
1.7201343750 -6.5551941250 -5.6412604376
-2.2141237500 -6.0756110938 -4.8389449120
-1.7002871875 -5.8868491563 -5.7086160184
-1.1427921875 -5.8569708750 -4.8869320720
-0.5771675000 -5.1336221875 -6.4628228942
-1.0731993750 -5.3347950000 -3.9990206640
-0.5932253125 -5.7578075000 -5.7289882192
-0.0461846875 -5.6511097188 -4.8716357600
0.0235156250 -5.0973812500 -4.0310509600
0.5067684375 -5.6086270625 -5.6773680232
1.0828609375 -5.4838222500 -4.8798732320
1.7302528125 -4.8942331250 -6.4552523207
1.1133909375 -4.9150612500 -4.0739479840
1.6627293750 -5.4462012813 -5.6343479552
-1.7145175000 -4.7691300000 -5.6666813280
-1.1330634375 -4.7951315625 -4.8533734400
-1.1153259375 -4.2213771875 -4.0740256960
-0.5967593750 -4.5823353125 -5.6774949528
-0.0251146875 -4.5632675000 -4.9005316720
0.5223962500 -3.9002075000 -6.4445318208
0.0340640625 -4.0466090625 -3.9924540000
0.5553315625 -4.4920084375 -5.6972959704
1.0872012500 -4.3452037500 -4.8446696960
1.1277556250 -3.7774425000 -4.0293283440
1.6349943750 -4.3130343750 -5.6815048920
-1.7075031250 -3.1916346875 -6.4755259736
-1.6526915625 -3.7267965625 -5.6373036016
-1.1074650000 -3.6222393750 -4.8001795760
-1.1694656250 -3.0212068750 -4.0964844640
-0.5867618750 -3.4532090625 -5.6740600824
-0.0182212500 -3.5002134375 -4.8475838960
0.5911828125 -2.7811325000 -6.4640739150
0.0112068750 -2.9395471875 -4.0583278720
0.5256615625 -3.3307262500 -5.6629200672
1.1007596875 -3.2465403125 -4.8982780240
1.6445887500 -2.6008550000 -6.4285673151
1.1415290625 -2.7300700000 -3.9820794480
1.6874946875 -3.2030162500 -5.6886880712
-1.6519793750 -6.4946716250 -3.2209551680
-0.5474034375 -6.3670180625 -3.1935098800
0.5402546875 -6.1860780938 -3.2290631200
1.6679028125 -5.9941045938 -3.2717140560
1.6702140625 -6.5250780000 -2.4016246000
-1.6909481250 -5.3511081250 -3.2898857120
-1.7135096875 -5.9027927500 -2.4574606720
-0.5153953125 -5.2007693750 -3.1991051440
-0.6064881250 -5.7838762500 -2.4379290560
0.5886565625 -5.0694446875 -3.1937041600
0.5820050000 -5.6393989375 -2.3948895600
1.6476928125 -4.8712146875 -3.2271850800
1.6995884375 -5.4469201875 -2.4288367520
-1.7043856250 -4.2679246875 -3.2760918320
-1.6753606250 -4.8279459375 -2.4237595680
-0.5873396875 -4.0257809375 -3.2652639600
-0.6095518750 -4.6097478125 -2.4790646080
0.5908200000 -3.9177300000 -3.1968514960
0.4957765625 -4.4850881250 -2.4243553600
1.6943343750 -3.7838925000 -3.2035217760
1.6867287500 -4.3287428125 -2.3760573520
-1.6813537500 -3.1779956250 -3.2152303840
-1.6624337500 -3.7450715625 -2.4042538560
-0.6053190625 -2.9610203125 -3.2875284480
-0.5335762500 -3.4952684375 -2.4049014560
0.5197625000 -2.7096853125 -3.2409012480
0.5197356250 -3.3015803125 -2.4923015520
1.7008650000 -2.6196943750 -3.1963852240
1.6123790625 -3.1933143750 -2.4347428640
2.2164215625 -5.8677665625 -4.0798152400
2.2115706250 -4.7613900000 -4.0582631120
2.2291200000 -3.6419118750 -4.0612809280
-1.6614125000 -2.6151928125 -5.6691784736
-0.5128556250 -2.4276053125 -5.6533977568
-1.1097762500 -2.4359365625 -4.8686179440
0.0004837500 -2.3312584375 -4.7640953040
-1.6816090625 -2.6009893750 -2.4506867760
-0.5447831250 -2.4370518750 -2.3769639920
2.2043278125 -4.1945559375 -4.8727496320
2.2177518750 -3.0732100000 -4.8411078960
2.2374512500 -2.5025865625 -4.0375399120
6.6643818750 -3.2852940625 -4.8991199040
6.7040762500 -2.7161487500 -4.0805664560
2.2428396875 -5.3072884375 -4.8809223440
6.6947775000 -6.6660475875 -4.9031997840
6.7181990625 -6.1153793750 -4.0579522640
6.6951134375 -4.9893168750 -4.0686894720
6.6964840625 -4.3763653125 -4.7989750400
2.2627271875 -6.4722162188 -4.8095309200
2.7880125000 -6.3196911875 -5.6886194256
3.3543359375 -6.3431638125 -4.8663772480
3.3410193750 -5.7743329375 -4.0643894080
3.9052196875 -6.2544749688 -5.6755275440
4.4780200000 -6.2972169688 -4.8882531760
4.4513868750 -5.7665633750 -4.0344314320
5.0489525000 -6.4146526563 -5.6665142472
5.6048753125 -6.4282420000 -4.8252028400
6.1688875000 -5.9453600625 -6.4436359310
5.6167137500 -5.8705400625 -4.0163504400
6.1315178125 -6.5525173750 -5.6943649328
2.7742390625 -4.6954118750 -6.4563821237
2.8479034375 -5.2514018750 -5.6197860216
3.4053178125 -5.1848056250 -4.8148282880
3.3140503125 -4.5992262500 -4.0725232640
3.9315840625 -5.1383790625 -5.6837132080
4.4971012500 -5.1988343750 -4.8383102640
4.4875068750 -4.6367303125 -4.0190315040
5.0156140625 -5.2508375000 -5.7122814344
5.5638371875 -5.3475740625 -4.8836163600
5.6033434375 -4.7990418750 -4.0256240720
6.1684978125 -5.4070484375 -5.6191565544
2.8353931250 -3.5714993750 -6.4435566647
2.7804203125 -4.1406850000 -5.6472636896
3.3523471875 -4.0383853125 -4.8658462160
3.3499015625 -3.4859025000 -4.0347681840
3.9331562500 -4.0486650000 -5.6514692040
4.4760043750 -4.0967846875 -4.8415094080
4.4600406250 -3.5136106250 -4.0556986160
5.0519356250 -4.1077362500 -5.6493010392
5.6037331250 -4.2432937500 -4.8475450400
5.5792096875 -3.6790396875 -4.0530305040
6.1558262500 -4.3252087500 -5.6867996696
2.7745884375 -2.9964818750 -5.6877594128
3.3235640625 -2.9394800000 -4.8626211680
3.3524815625 -2.3804800000 -4.0685210960
3.9067918750 -2.9199015625 -5.6340928008
4.4755878125 -2.9478246875 -4.8470010560
5.0510218750 -2.4774987500 -6.4665092407
4.4704815625 -2.3784240625 -4.0477331360
5.0330425000 -3.0349131250 -5.6603180104
5.5843696875 -3.0868221875 -4.8138439360
6.1571834375 -2.5966356250 -6.4234485552
5.6214706250 -2.5115225000 -4.0458939520
6.1052071875 -3.2063621875 -5.6939142032
2.7839006250 -5.7683183125 -3.2514182720
2.7872465625 -6.3269353438 -2.4342118320
3.8857084375 -5.6739158438 -3.2204888960
3.9022903125 -6.2660406250 -2.4799971520
5.0148481250 -5.8488385000 -3.2677896000
5.0530240625 -6.3806383125 -2.3974670080
6.1711987500 -6.0080406250 -3.2239211760
6.1740206250 -6.5753678438 -2.4223348480
2.7718606250 -4.6818803125 -3.2400205120
2.7832825000 -5.2145562500 -2.4157293280
3.8843915625 -4.6033515625 -3.2781512000
3.9482465625 -5.1231946875 -2.4025053360
5.0410109375 -4.6966346875 -3.2130933040
5.0488853125 -5.2957859375 -2.4572275360
6.1782803125 -4.8246000000 -3.2134948160
6.1372959375 -5.4238856250 -2.4769404800
2.7682862500 -3.5482525000 -3.2429088080
2.8303003125 -4.1044575000 -2.4338232720
3.9163459375 -3.4882137500 -3.2338035520
3.9069934375 -4.0553300000 -2.4344579200
5.0392909375 -3.5511146875 -3.2323140720
5.0151303125 -4.1191581250 -2.4569425920
6.1610400000 -3.7398578125 -3.2838371280
6.1555440625 -4.2691340625 -2.4115458320
2.8084106250 -2.4526528125 -3.2216027680
2.7851234375 -3.0104971875 -2.3972727280
3.9114009375 -2.9226965625 -2.4599215520
5.0354478125 -2.4648137500 -3.2708721760
5.0332709375 -2.9848450000 -2.4078545120
6.1641575000 -2.6508962500 -3.2126011280
6.1275806250 -3.2159431250 -2.4009122400
3.8986084375 -2.3413500000 -3.2386605520
5.0517878125 -5.8343730313 -6.4495439858
5.0307178125 -4.6535406250 -6.4576032382
3.9138331250 -3.4755018750 -6.4569489032
-6.6652903844 -2.1629000000 -4.8843287200
-6.0926659688 -2.2333796875 -5.6797278776
-4.9657609375 -1.8139415625 -6.4755473820
-5.6017591563 -1.7562409375 -3.9811469040
-4.4261512500 -1.9083668750 -4.0433424080
-3.3654890625 -2.0991525000 -4.1004995840
-6.6834484781 -0.4617125000 -3.9930238880
-6.1911601563 -1.1127459375 -5.7324619456
-5.6668813125 -1.2272334375 -4.8437112480
-5.5392788125 -0.6523234375 -4.0664099200
-5.0955268750 -1.2704618750 -5.6435892072
-4.5164243750 -1.3866425000 -4.9088209520
-4.4926534375 -0.8324396875 -4.0879490960
-3.9048703125 -1.4787700000 -5.6081862104
-3.3138353125 -1.4955803125 -4.8504074320
-3.4003190625 -0.9572337500 -4.0129958720
-2.7851906250 -1.5650521875 -5.6886453296
-6.2019518125 0.0081431250 -5.6227300112
-5.6125911250 -0.1034015625 -4.8962963680
-5.6330550938 0.4635400000 -4.1005513920
-5.0118112500 -0.1694737500 -5.6208817608
-4.4365250000 -0.2362715625 -4.8384786400
-4.5068837500 0.3103928125 -4.0213369600
-3.9176762500 -0.3567118750 -5.7163017352
-3.3700846875 -0.4122221875 -4.8588003280
-2.8154250000 0.1519646875 -6.4587343364
-3.3216156250 0.1320368750 -3.9874156720
-2.7961690625 -0.4363156250 -5.6889497016
-6.2011495938 1.6383000000 -6.4727212530
-6.1003885000 1.0999534375 -5.6325074760
-5.5223919063 1.0644515625 -4.8344376160
-5.0356493750 1.5240812500 -6.4599432761
-5.6073733438 1.6110487500 -3.9999920640
-5.0153318750 0.9173243750 -5.7171552720
-4.4756684375 0.8708306250 -4.8232082320
-4.4292284375 1.4479846875 -4.0226451120
-3.9239112500 0.7930812500 -5.6608127768
-3.3634868750 0.6539762500 -4.8577512160
-3.3310084375 1.2343015625 -4.0993080000
-2.7904715625 0.7007253125 -5.6408589256
-6.2210102188 -1.6846593750 -3.2935252240
-6.1102140000 -2.2053759375 -2.4268550960
-4.9986828125 -1.8578418750 -3.2670901920
-3.8796078125 -2.0194412500 -3.1987295360
-2.8160700000 -2.0999990625 -3.2398262320
-6.0982344688 -0.5630043750 -3.2550318800
-6.1734374375 -1.1317600000 -2.4572275360
-5.0073231250 -0.7074843750 -3.1832778000
-5.1069218750 -1.3031956250 -2.4481611360
-3.9508803125 -0.8848996875 -3.1980948880
-3.9362065625 -1.4494090625 -2.4104449120
-2.8076850000 -1.0403850000 -3.2714161600
-2.7834303125 -1.5461590625 -2.3717572880
-6.1377743125 0.5795593750 -3.1690176480
-6.2311649375 -0.0174284375 -2.4319193280
-5.0933096875 0.3839228125 -3.2443723840
-5.0149421875 -0.1378418750 -2.3736353280
-3.9319334375 0.2307218750 -3.2744210240
-3.8688443750 -0.3062003125 -2.4250288640
-2.7558431250 0.1151056250 -3.1866841760
-2.7971096875 -0.4845293750 -2.4494304320
-6.2106794688 1.6765162500 -3.2603810560
-6.1085813438 1.1511637500 -2.3850848960
-5.0252218750 1.4767006250 -3.2708592240
-4.9829878125 0.9451131250 -2.4229435920
-3.8690056250 1.3491653125 -3.2269519440
-3.9279828125 0.7722800000 -2.4420348400
-2.8068518750 1.2666187500 -3.2159945520
-2.8046078125 0.6918028125 -2.4373721200
-6.1603466250 2.2256531250 -5.7171449104
-5.6220014063 2.1518543750 -4.8464182160
-5.0559937500 2.0791171875 -5.6662772256
-4.4947228125 1.9780268750 -4.8791738240
-3.9003150000 1.8670062500 -5.6290467016
-3.3316131250 1.8424559375 -4.8156313120
-2.8034521875 1.7979240625 -5.6676915840
-5.0560206250 2.0434675000 -2.4753862400
-3.9167087500 1.8855500000 -2.3812122480
-2.7560043750 1.8169381250 -2.3610071280
-2.2434981250 -2.1349768750 -4.0432517440
-2.2713809375 -0.4152321875 -4.8316011280
-6.6979924219 -1.0256575000 -4.7949081120
-6.6614289844 0.6377437500 -4.0737278000
-6.6853825375 1.1969184375 -4.8952084000
-6.1086189688 2.2276015625 -2.4446252400
-3.8894843750 -2.0135287500 -6.4757232002
-4.9851512500 -0.7303146875 -6.4685057785
-6.1717779063 0.5454550000 -6.4715428153
-2.2349787500 0.1657112500 -4.0451297840
-2.2296843750 1.2398915625 -4.0064421600
-2.2185312500 1.7877250000 -4.8624527920
-1.6436481250 -2.0521884375 -6.4493017834
-1.1446062500 -1.9034890625 -4.0187336080
-0.5616740625 -1.9115650000 -3.2340884960
-0.0322634375 -1.7155118750 -4.0906172080
0.5085556250 -2.1976493750 -5.6697781512
1.0940409375 -2.1951500000 -4.8646157760
1.1181343750 -1.6453009375 -4.0472280080
1.6496278125 -2.0263078125 -5.6678703216
-2.2332184375 -1.5488331250 -4.8211229600
-2.2180609375 -0.9763150000 -4.0483159760
-1.7264365625 -1.4580896875 -5.6941849000
-1.1293950000 -1.3677090625 -4.9339348800
-0.5663368750 -0.7237975000 -6.4114720998
-1.0826996875 -0.8595565625 -4.0426948080
-0.5196012500 -1.3181784375 -5.6717494456
0.0238246875 -1.1476968750 -4.8687345120
0.4838575000 -0.5826768750 -6.4642082143
-0.0291056250 -0.6020940625 -4.0194589200
0.6156390625 -1.1467159375 -5.6718841464
1.1257803125 -1.0426425000 -4.7870721520
1.0846884375 -0.4433703125 -4.0790899280
1.6551775000 -0.8947762500 -5.6627193112
-1.7146384375 -0.3521700000 -5.6662254176
-1.1553025000 -0.2841225000 -4.8392169040
-1.0939200000 0.2828056250 -4.0581206400
-0.6049696875 -0.1425046875 -5.6432356176
0.0061006250 -0.0838096875 -4.9230940560
0.5585296875 0.5638106250 -6.4329390037
0.0119190625 0.4444318750 -4.0600375360
0.5974715625 -0.0192693750 -5.6661140304
1.1412065625 0.1349931250 -4.8515083520
1.7145175000 0.1471003125 -5.6779405016
1.0909771875 0.6773843750 -4.0094211200
2.2345487500 0.2497628125 -4.8037931840
-2.2077006250 0.7140821875 -4.8751457520
-1.6783706250 1.3242118750 -6.4384499502
-1.6555268750 0.7333515625 -5.7021296568
-1.1224881250 0.8734912500 -4.8279875200
-1.1381159375 1.4248050000 -4.0047324960
-0.5725046875 0.9358009375 -5.6803780680
-0.0295893750 1.0384365625 -4.8138050800
0.0399496875 1.6161550000 -4.0401173600
0.5090528125 1.1344206250 -5.6457586672
1.1063765625 1.2061500000 -4.8887324000
1.6919559375 1.2835634375 -5.6469554320
1.6281278125 0.7266731250 -6.4543884223
-1.7106609375 -2.0128031250 -3.2051666800
-0.5581131250 -1.3380928125 -2.4664364080
0.5149787500 -1.6298881250 -3.2660022240
0.5897450000 -2.1628865625 -2.3918069840
1.6343628125 -1.4096878125 -3.2231699600
1.6461206250 -1.9953746875 -2.4882216720
-1.6718534375 -1.4384037500 -2.4455966400
-0.5758237500 -0.7281512500 -3.1746129120
-0.5560706250 -0.1492637500 -2.4323467440
0.5556540625 -0.5900675000 -3.2217452400
1.6542368750 -0.3310731250 -3.2587620560
-1.6471553125 0.2055668750 -3.2448257040
-1.6866346875 -0.8591131250 -3.2417690320
-0.5501312500 0.4272856250 -3.2066561600
-1.6904778125 -0.3522371875 -2.3582742560
0.5951871875 1.1307253125 -2.4093828480
0.5389915625 0.5595912500 -3.1915411760
1.7141815625 0.7149825000 -3.2684112960
1.6512671875 0.2196359375 -2.3660195520
-1.6865271875 1.3274771875 -3.1664272480
-1.6530812500 0.7348834375 -2.4043833760
-0.5399993750 1.4728306250 -3.2632952560
-0.5316278125 0.9727540625 -2.3449984560
0.5943675000 1.6785453125 -3.2399816560
1.1667915625 1.7615621875 -4.0433165040
1.6372115625 1.2583815625 -2.4095123680
2.2189343750 -1.9741971875 -4.8894318080
2.2366181250 0.8574200000 -4.0960570480
1.7038884375 1.8432890625 -3.1673209360
2.2178728125 1.9548606250 -4.0543904640
-1.6736943750 1.9180015625 -5.6768473528
-1.0972793750 1.9452931250 -4.8877221440
-0.5381315625 2.0574693750 -5.7023653832
-0.0141228125 2.1770093750 -4.8348132240
-1.6308421875 1.9235915625 -2.4543133360
0.5439231250 2.2139759375 -2.4014173680
0.5586371875 -1.1194109375 -2.3175661200
0.5692393750 -0.0369800000 -2.4359214960
1.6852775000 -0.8559687500 -2.4000962640
-0.5053037500 2.0342225000 -2.4521503520
2.2332856250 -1.4434293750 -3.9941766160
2.2288512500 -0.9053515625 -4.8487884320
0.5476318750 2.2192031250 -5.6797291728
1.6972100000 1.8574925000 -6.4465770711
2.2412003125 -0.3398746875 -4.0614493040
6.6349671875 -1.6147037500 -4.0496888880
6.6496275000 0.0672009375 -4.8599142000
6.6765428125 1.7471303125 -4.0789863120
2.8056156250 -1.8963403125 -5.6673302232
3.3413150000 -1.7829950000 -4.8242314400
3.3679481250 -1.2279187500 -4.0440677200
3.8791106250 -1.8343262500 -5.6871053368
4.4410265625 -1.8140490625 -4.8531403040
5.0377590625 -1.3147384375 -6.4355904076
4.4947765625 -1.2415309375 -4.0567347760
4.9916818750 -1.8996728125 -5.6842843912
5.5607600000 -1.9851621875 -4.9161517840
5.5645896875 -1.4282853125 -4.0802167520
6.1935990625 -2.0474450000 -5.6074608984
2.8300584375 -0.1837175000 -6.4723087318
2.7818312500 -0.1709384375 -3.2496568000
2.7628709375 -0.7559937500 -5.6776542624
3.3355234375 -0.6846137500 -4.8782283280
3.3709312500 -0.1350871875 -4.0260903440
3.9079743750 -0.7129265625 -5.6729682288
4.4831128125 -0.7127250000 -4.9081215440
4.4367131250 -0.1639375000 -4.0768362800
5.0885931250 -0.7524328125 -5.6471807968
5.6524306250 -0.8671890625 -4.8647971040
5.5384671875 -0.3195571875 -4.0252484640
6.2076278125 -0.9496281250 -5.6959748664
2.7734865625 0.3781581250 -5.6649600072
3.3694665625 0.3888409375 -4.9036660560
3.3257409375 0.9410146875 -4.0720051840
3.9582575000 0.4718712500 -5.6563249088
4.5213156250 0.4062425000 -4.8626211680
4.4560228125 0.9386631250 -4.0132419600
5.0746181250 0.3445643750 -5.6968400600
5.6046065625 0.2565621875 -4.7959701760
6.2222746875 0.7543409375 -6.4585995061
5.6661368750 0.8244981250 -4.0032559680
6.1150568750 0.1627146875 -5.7198130224
2.2703193750 1.4150628125 -4.8947291760
2.8658962500 1.4642843750 -5.6618942688
3.4160946875 1.5374381250 -4.8270290720
3.3414762500 2.0971906250 -4.0318928400
3.9341909375 1.5676859375 -5.7062186032
4.4793100000 1.5158575000 -4.8013841120
5.0866715625 2.0565959375 -6.4665039822
4.5326031250 2.1039765625 -4.0276445840
4.9871534375 1.4852065625 -5.6935347096
5.5500100000 1.3422718750 -4.8832018960
6.1320418750 1.8265459375 -6.4671558175
5.6237550000 1.9143062500 -4.0830532400
6.1500750000 1.2951196875 -5.6038602424
2.8130062500 -1.3166465625 -3.2264986240
2.7473237500 -1.8693443750 -2.4382528560
3.9312615625 -1.2512731250 -3.2436082160
3.9098690625 -1.8034737500 -2.4010158560
5.0288096875 -1.3448384375 -3.1955562960
5.0167159375 -1.9233093750 -2.4109500400
6.1030168750 -1.4991143750 -3.1956987680
6.1570759375 -2.0860643750 -2.4256894160
2.8061934375 0.3620868750 -2.4059505680
2.7688909375 -0.7312015625 -2.4552458800
3.9130940625 -0.1193250000 -3.1844952880
3.8819996875 -0.7049043750 -2.4157811360
4.9875028125 -0.2150000000 -3.2150361040
5.0526209375 -0.7792406250 -2.4110018480
6.1390965625 -0.3988921875 -3.2994054320
6.2120890625 -0.9299018750 -2.4302226160
2.7945565625 2.0397453125 -3.2493200480
2.7832153125 0.9227800000 -3.2215509600
3.8783850000 1.0311400000 -3.2442169600
3.9487706250 0.4749215625 -2.4500909840
5.0506456250 0.8978265625 -3.2986930720
5.0622690625 0.3613343750 -2.4311551600
6.2229196875 0.7250875000 -3.2176653600
6.1057178125 0.1439693750 -2.4517617920
3.9524256250 2.1143503125 -3.2821533680
3.9272303125 1.5869553125 -2.4080746960
5.0887409375 2.0107740625 -3.2047133600
4.9922596875 1.4336871875 -2.4456743520
6.1602471875 1.8732412500 -3.1779027200
6.1138206250 1.2821390625 -2.4143046080
2.8152100000 1.4860531250 -2.4310644960
2.7596325000 -1.3173856250 -6.4594268798
3.9014840625 -0.1096096875 -6.4258429914
2.7656928125 2.0259987500 -6.4524606466
-5.5740523750 6.6036712500 -4.8696282000
-4.9900156250 6.5568684375 -5.6552498928
-4.4580250000 6.4804359375 -4.7909707040
-3.9378996875 6.3470687500 -5.6858554688
-3.3831325000 6.3065412500 -4.8436982960
-2.8294134375 6.2828106250 -5.6768175632
-5.0181671875 6.5760034375 -2.4165841600
-3.9272168750 6.3518793750 -2.4233192000
-2.8468150000 6.2812787500 -2.4643899920
-6.6650435375 2.3516431250 -4.8066944320
-6.1347145938 2.8174540625 -6.4637613314
-6.7004782250 2.9058190625 -3.9918064000
-5.5302300000 2.7065946875 -4.0260514880
-4.4625400000 2.5411790625 -4.0781832880
-2.7690521875 2.3619765625 -6.4640785388
-3.3612831250 2.4221496875 -4.0548178800
-6.1692758438 3.3722750000 -5.6460734008
-5.6100447188 3.2526678125 -4.8685013760
-5.5878930000 3.8164650000 -4.0970154960
-5.0356090625 3.1862193750 -5.6531154032
-4.4559959375 3.1148528125 -4.8617533840
-3.8739909375 3.5875975000 -6.4169140122
-4.4655903125 3.6669996875 -4.0296780480
-3.9228362500 2.9809481250 -5.7023537264
-3.3548331250 2.9677525000 -4.8868932160
-2.8058709375 3.4662165625 -6.4558421548
-3.3597915625 3.5147931250 -4.0191351200
-2.7636503125 2.9071628125 -5.6401154808
-6.1378240313 5.0091237500 -6.4676614376
-6.1397294688 4.4525021875 -5.6564298200
-5.5716739375 4.4228590625 -4.8342044800
-5.6028677500 4.9796150000 -4.0271006000
-5.0571628125 4.3029965625 -5.7044558360
-4.4887296875 4.1975256250 -4.8848597520
-4.4725912500 4.7504653125 -4.0346904720
-3.9130806250 4.1814946875 -5.6702224048
-3.3613234375 4.0442709375 -4.8812979520
-3.3601275000 4.5912309375 -4.0546883600
-2.7649268750 4.0344884375 -5.6371093216
-6.1309238750 6.2015003125 -6.4313623567
-6.7166683969 6.2563387500 -4.0163504400
-6.1726500000 5.5875275000 -5.7108139728
-5.6097853750 5.5049271875 -4.8971123440
-5.6073666250 6.0495625000 -4.0400266960
-5.0052268750 5.4608925000 -5.6323714800
-4.4486725000 5.2977209375 -4.8516896800
-4.5171096875 5.8719456250 -4.0772766480
-3.8701612500 5.2804537500 -5.6570126600
-3.3401728125 5.1803846875 -4.8078989680
-2.7602103125 5.7185968750 -6.4630139362
-3.3235506250 5.7550796875 -4.0261680560
-2.8214987500 5.1266346875 -5.7146361080
-6.1143581250 2.7882409375 -3.2613395040
-4.9731918750 2.6460856250 -3.1857775360
-3.9132956250 2.4335715625 -3.2082233520
-2.8126031250 2.3311778125 -3.2564436480
-6.0950188750 3.9387328125 -3.2002190160
-6.2057600000 3.3466093750 -2.4618125440
-5.0462246875 3.7431903125 -3.2334538480
-5.0483881250 3.2096678125 -2.3795673440
-3.9292996875 3.5451887500 -3.2049464960
-3.8523968750 2.9884462500 -2.3882322320
-2.7929843750 3.4457781250 -3.2099330160
-2.7304596875 2.8756384375 -2.4213245920
-6.1857717188 5.0224403125 -3.2481932240
-6.1575879063 4.4937821875 -2.3806035040
-5.0453646875 4.8437618750 -3.2409660080
-4.9995159375 4.2998790625 -2.3962754240
-3.9059721875 4.7253237500 -3.2242967840
-3.8978290625 4.1346650000 -2.4692340400
-2.7931456250 4.5906934375 -3.2421575920
-2.7514625000 4.0220184375 -2.4505572560
-6.1640889688 6.1469440625 -3.2194397840
-6.1148795000 5.5755546875 -2.4292253120
-5.0324781250 6.0180112500 -3.2210328800
-5.0209353125 5.4163740625 -2.4784170080
-3.9194500000 5.8177790625 -3.3038609200
-3.9126775000 5.2936628125 -2.4297174880
-2.7559506250 5.6997843750 -3.2328580560
-2.8101440625 5.1514537500 -2.4236948080
-2.2745790625 5.1938759375 -4.8727366800
-2.2639500000 6.2646431250 -4.9054534320
-2.2754256250 3.5157875000 -4.0755151760
-6.6565715969 4.0002362500 -4.0445469440
-6.7112691019 4.5575028125 -4.8741614000
-6.6916477719 5.7030765625 -4.8421570080
-3.8996834375 2.4013618750 -6.4710458859
-5.0095403125 4.9070121875 -6.4401944550
-0.0180196875 6.6907865625 -4.8920999200
-1.6805878125 6.3902837500 -5.6990483760
-1.1410721875 6.4892509375 -4.8840826320
-0.5717118750 6.5456884375 -5.6848231944
0.5800968750 6.6852234375 -5.6460215928
-1.7102175000 6.3776793750 -2.4347299120
-0.5166450000 6.4929865625 -2.4117012560
0.5931984375 6.6793512500 -2.4285906640
1.0848362500 2.3319303125 -4.8315363680
-2.2264190625 2.3446690625 -4.0585480560
-1.1143181250 2.4833709375 -4.0240180240
-0.0058856250 2.7172640625 -3.9846439440
1.6451800000 2.4172584375 -5.6306320264
1.1211846875 3.4580331250 -4.8502520080
-2.2148493750 2.9236909375 -4.8222238800
-1.6516300000 3.0267296875 -5.6300569576
-1.0839896875 3.0470337500 -4.8280263760
-1.1129609375 3.6343331250 -4.0936479760
-0.5531950000 3.2219362500 -5.6661347536
0.0237709375 3.7749296875 -4.0425911920
0.0355421875 3.2411921875 -4.8925273360
0.5810240625 3.3785100000 -5.7083245984
1.7078121875 4.0810090625 -6.4486344963
1.1283871875 4.0071834375 -3.9864572240
1.6715578125 3.4915596875 -5.7037266384
-2.2034409375 4.0932371875 -4.8503297200
-1.6539278125 4.6492003125 -6.4458913922
-2.2225087500 4.6445240625 -4.0343148640
-1.6355587500 4.0827156250 -5.6569543760
-1.0911250000 4.2510740625 -4.8153334160
-1.1192496875 4.8467046875 -4.0652830960
-0.5333612500 4.2907818750 -5.6441202392
0.0318334375 4.3598506250 -4.8150743760
-0.0018409375 4.9698459375 -4.1097343600
0.5502521875 4.5309234375 -5.6702612608
1.1413812500 4.5124603125 -4.8847302320
1.6750112500 5.2517512500 -6.4682054346
1.1196259375 5.0749675000 -4.0599339200
1.6684403125 4.6693431250 -5.7133914208
-2.1888209375 5.7444640625 -4.0298593760
-1.7003006250 5.2217453125 -5.6707935880
-1.1296100000 5.3823503125 -4.9158797920
-0.5456028125 5.9534843750 -6.4350845025
-1.1169384375 5.9278725000 -4.0673295120
-0.5134603125 5.3817725000 -5.6312070952
0.0272915625 5.5735256250 -4.8489956640
-0.0343462500 6.1296634375 -4.0569938160
0.6179234375 5.5915184375 -5.6364060280
1.1662675000 5.6574562500 -4.8203717440
1.0826190625 6.2538393750 -4.0908503440
1.6943478125 5.8328962500 -5.6816473640
-1.7038615625 2.5042796875 -3.2288299840
-0.5736603125 2.6352953125 -3.1914634640
1.1224075000 2.8922068750 -4.0358172960
1.7082959375 2.9682900000 -3.2580108400
-1.6811387500 3.5547159375 -3.2949628960
-1.6148515625 3.0455556250 -2.3775597840
-0.5768987500 3.7950590625 -3.2768689520
-0.5348796875 3.2353334375 -2.4672653360
0.5424987500 3.9431268750 -3.2131839680
0.5595106250 3.3593212500 -2.4360251120
1.7181725000 4.0705546875 -3.2302806080
1.6531215625 3.5152768750 -2.4213245920
-1.6545728125 4.6311403125 -3.2394117680
-1.6505415625 4.0872575000 -2.4083725920
-0.5324609375 4.8312918750 -3.2704188560
-0.5513943750 4.2979171875 -2.3689985120
0.5400396875 5.0693640625 -3.2595132720
0.5879443750 4.5150134375 -2.4202884320
1.6467253125 5.2654306250 -3.2238823200
1.6820121875 4.6678246875 -2.4914855760
-1.6460803125 5.7880553125 -3.1789000240
-1.6467925000 5.1893475000 -2.4449878960
-0.5762671875 5.9390525000 -3.2271073680
-0.5218050000 5.3667628125 -2.4178793600
0.5465703125 6.1264921875 -3.2717658640
0.5532487500 5.6091081250 -2.3804998880
1.6480690625 6.3689046875 -3.2687221440
1.6902762500 5.8308537500 -2.4265053920
0.5941525000 2.7762815625 -3.2086507680
1.6734390625 2.4420103125 -2.4240056560
2.1996112500 3.6353140625 -4.8313291360
2.2233553125 4.7645209375 -4.9017750640
2.2205603125 6.3781496875 -4.0607239920
0.5529396875 2.7903103125 -6.4656561442
-0.5689840625 2.6512859375 -6.4582080966
0.5538400000 3.9686850000 -6.4660232557
-1.6392540625 5.7987381250 -6.4602918144
0.5118343750 6.1303890625 -6.4755891535
6.6836512500 3.4408465625 -4.8486977680
6.7007437500 5.1165565625 -4.0807607360
2.2508215625 2.5055159375 -4.8730734320
2.2597575000 3.0738012500 -4.0632237280
2.7983325000 2.6145612500 -5.6982246288
3.3444190625 2.6410734375 -4.8561710720
3.9260209375 3.2864631250 -6.4447736346
3.4017703125 3.2213450000 -4.0454406320
3.8992131250 2.6821384375 -5.6854228720
4.4435528125 2.6185118750 -4.8896131360
4.4789471875 3.1910434375 -4.0758389760
5.0632768750 2.5904543750 -5.6055504784
5.6407534375 2.4903046875 -4.8631003920
5.5513940625 3.0499631250 -4.0666819120
6.2140375000 2.3886500000 -5.6479618024
2.2650921875 4.2307162500 -4.0520202480
2.7631934375 3.7230340625 -5.6379615632
3.3458300000 3.7529862500 -4.8765704720