ITEM: TIMESTEP
19000
# source: voids-relax.19000.cfg
ITEM: NUMBER OF ATOMS
2298
ITEM: BOX BOUNDS pp pp pp
-6.7187500000 6.7187500000
-6.7187500000 6.7187500000
-6.4760000000 6.4760000000
ITEM: ATOMS x y z
-5.5528453125 -6.3292465938 -4.0808384480
-4.4495593750 -6.4719179063 -4.0563850720
-3.3738068750 -6.5686302813 -4.0737148480
-6.7124068147 -5.6340105000 -4.7931984480
-6.6948764000 -5.0257190625 -4.0804757920
-6.1682169688 -5.7060234063 -5.6314156224
-5.5871942500 -5.7442544375 -4.8360825200
-5.5648624688 -5.1830318750 -4.0391200560
-5.0467756250 -5.9020657813 -5.6525804856
-4.4526231250 -5.9233292813 -4.9054145760
-3.9017125000 -5.4720953438 -6.4599681439
-4.4443187500 -5.3922430000 -4.0329937600
-3.8787746875 -6.0326782813 -5.6787098504
-3.3169528125 -6.0054942188 -4.8678537760
-2.7857281250 -5.4601332813 -6.4431581317
-3.3528443750 -5.4421028438 -4.0533024960
-2.7406587500 -6.0297287500 -5.6471859776
-6.7089339600 -4.4569768750 -4.8451230160
-6.6906321656 -3.8880868750 -4.0488599600
-6.1396905000 -4.6245156250 -5.6424442504
-5.5724224063 -4.6221506250 -4.8476616080
-5.5824037813 -4.0572381250 -4.0482512160
-5.0348968750 -4.7778778125 -5.7015584736
-4.4786381250 -4.8302840625 -4.8564689680
-3.8531359375 -4.2986159375 -6.4504251103
-4.4562915625 -4.2904190625 -4.0187465600
-3.9377787500 -4.8764687500 -5.7080992336
-3.3754193750 -4.8986809375 -4.9011533680
-2.7542978125 -4.3353137500 -6.4489691760
-3.3270443750 -4.3681550000 -4.0323202560
-2.7793721875 -4.9048890625 -5.6439997856
-6.1256335313 -2.9352740625 -6.4499429074
-6.1794762500 -3.5245487500 -5.6917861896
-5.6033058125 -3.5052793750 -4.8788241200
-5.5785673750 -2.9658175000 -4.0272689760
-5.0501618750 -3.6484693750 -5.6898200760
-4.4780603125 -3.7461196875 -4.8862585680
-4.5010250000 -3.1963915625 -4.0586646240
-3.8997103125 -3.7075406250 -5.6806837352
-3.3716837500 -3.8227000000 -4.8631003920
-3.3497000000 -3.2720178125 -4.0453888240
-2.7871256250 -3.7498015625 -5.6744421664
-6.1410987500 -6.2430060625 -3.2958306800
-5.0186778125 -6.4908231250 -3.2395412880
-3.9096809375 -6.6202293406 -3.2147900160
-2.8144709375 -6.5257230000 -3.2758586960
-6.1569281250 -5.1874528125 -3.2675564640
-6.1364964063 -5.7205587500 -2.3920271680
-5.0180059375 -5.3485012500 -3.2280528640
-5.0594068750 -5.9228603125 -2.4556473920
-3.8951012500 -5.4812731563 -3.2024467600
-3.9111725000 -6.0447491875 -2.4321524640
-2.7948925000 -5.4658254063 -3.2316535200
-2.7500381250 -6.0104029375 -2.3867945600
-6.1407628125 -4.0651662500 -3.2344122960
-6.1696789688 -4.6415275000 -2.4442884880
-5.0372484375 -4.2067706250 -3.2288299840
-5.0494631250 -4.7738465625 -2.4400402320
-3.8943487500 -4.3197262500 -3.2265245280
-3.9200815625 -4.8828381250 -2.4547018960
-2.7680309375 -4.3401915625 -3.2062287440
-2.7564746875 -4.9105596875 -2.4203143360
-6.1512131563 -2.9459165625 -3.1969810160
-6.1871853438 -3.5116890625 -2.4177498400
-5.0351656250 -3.0517637500 -3.2035347280
-5.0100509375 -3.6377059375 -2.4436667920
-3.9210356250 -3.1671381250 -3.2762602080
-3.9104737500 -3.7287987500 -2.4526943360
-2.7838468750 -3.1763562500 -3.2370026960
-2.8121328125 -3.7530265625 -2.4612167520
-2.2499346875 -3.6455400000 -4.8717264240
-6.2027164063 -2.3576631250 -5.6869991304
-5.6155500625 -2.4371593750 -4.9269667040
-5.0061943750 -2.4627309375 -5.6380198472
-4.4563856250 -2.6420543750 -4.8526222240
-3.8748509375 -2.6017418750 -5.6413873672
-3.3253646875 -2.6856590625 -4.8081450560
-2.8066906250 -2.6620762500 -5.7167589408
-6.1508382500 -2.3434193750 -2.4693117520
-5.0292665625 -2.4743543750 -2.4375275440
-3.8952625000 -2.6524684375 -2.3872219760
-2.8079806250 -2.5983690625 -2.4591832880
-2.2675243750 -2.5523859375 -4.8670118960
-2.2612625000 -5.3363806250 -4.0989194400
-2.2429203125 -4.2064615625 -4.0679123520
-6.7133207663 -3.3247465625 -4.8459519440
-6.6776304438 -2.7665259375 -4.0485102560
-4.9844525000 -6.4547689688 -6.4640790699
-3.9229437500 -6.6231834406 -6.4444148642
-5.0318734375 -3.0319031250 -6.4154240141
-2.2127128125 -3.1142481250 -4.0157028400
-2.2246721875 -6.5197876563 -4.0549862560
-1.0528146875 -6.3540387813 -3.9945263200
-0.0357303125 -6.6677708125 -4.9080956400
0.0622962500 -6.1206912188 -4.0007691840
0.5771540625 -6.6909025281 -5.6202678360
1.1326737500 -6.4960570313 -4.8546297840
1.6903568750 -5.9077364063 -6.4651410173
1.1366915625 -5.9011627813 -4.0696220160
1.7247837500 -6.4391277188 -5.6068249552
-2.1810540625 -5.9362024063 -4.8149837120
-1.6453278125 -5.8085569063 -5.6553276048
-1.0803212500 -5.8036831250 -4.8278450480
-1.1045221875 -5.2341212500 -4.0600116320
-0.5720478125 -5.5934104375 -5.7100562808
-0.0111934375 -5.6016503125 -4.8771274080
0.5857003125 -4.9089068750 -6.4370560559
0.0307853125 -5.0654671875 -3.9767561760
0.5390856250 -5.5101328750 -5.7150259632
1.0738175000 -5.3619521875 -4.8855203040
1.1622362500 -4.8089050000 -4.0020514320
1.6850356250 -5.3476412500 -5.6242557568
-2.2105225000 -4.7685253125 -4.8726848720
-1.6818912500 -4.1981706250 -6.4581202821
-1.6178481250 -4.7377668750 -5.6198313536
-1.0693562500 -4.6342443750 -4.8115514320
-1.1267478125 -4.0520512500 -4.0845427200
-0.5123718750 -4.4886625000 -5.6374629112
0.0433896875 -4.5209796875 -4.8293345280
0.0092450000 -3.9435837500 -4.0485620640
0.5587312500 -4.3095137500 -5.7049609640
1.1146809375 -4.2889812500 -4.8629838240
1.6962156250 -3.6230590625 -6.4456447862
1.1157559375 -3.7390650000 -3.9899154080
1.6620171875 -4.2205978125 -5.7028666256
-1.6305600000 -3.0731293750 -6.4660301850
-1.6567093750 -3.6339031250 -5.6555413128
-1.1292337500 -3.4519593750 -4.8234284160
-0.5319771875 -2.8821690625 -6.4748313669
-1.1164009375 -2.8696184375 -4.0474222880
-0.5395962500 -3.4355253125 -5.6061048240
0.0117040625 -3.3505600000 -4.7956334240
0.0136659375 -2.7272212500 -4.0774320720
0.5566484375 -3.1988775000 -5.6234889984
1.1427921875 -3.2055290625 -4.8668564720
1.1285753125 -2.6516890625 -4.0531082160
1.6853984375 -3.0310431250 -5.7016180528
-1.6734659375 -6.3351160938 -3.2715715840
-0.5042556250 -6.2230863125 -3.2035476800
0.6226803125 -6.1242521563 -3.1932508400
0.5884953125 -6.6976578281 -2.3947600400
1.6891475000 -5.8900110000 -3.2177560240
1.7325237500 -6.4523717188 -2.4022074400
-1.6985000000 -5.2519931250 -3.2891344960
-1.6475046875 -5.7897645625 -2.4277876400
-0.5724106250 -5.0259206250 -3.2452401680
-0.5678821875 -5.6240277813 -2.4873150320
0.5961278125 -4.9127231250 -3.2036124400
0.5400665625 -5.5165506250 -2.4772772320
1.7341093750 -4.7876737500 -3.2279362960
1.6860703125 -5.3263293750 -2.3919106000
-1.6774434375 -4.1889390625 -3.2484393120
-1.6302643750 -4.7305778125 -2.3816267120
-0.5791428125 -3.9272571875 -3.2662483120
-0.5330253125 -4.4746606250 -2.4188248560
0.5197221875 -3.7106581250 -3.2207738400
0.5568500000 -4.3088687500 -2.4866285760
1.6803996875 -3.6207075000 -3.2206572720
1.6678893750 -4.1956309375 -2.4567483120
-1.6428150000 -3.0851021875 -3.2041305200
-1.6607540625 -3.6589103125 -2.4044610880
-0.5391662500 -2.8595806250 -3.2591765200
-0.5373790625 -3.4017971875 -2.3653978560
0.5556406250 -2.5887209375 -3.2436988800
0.5706906250 -3.1379250000 -2.4082689760
1.6450321875 -2.4094646875 -3.1898962720
1.6796337500 -3.0155900000 -2.4839604640
2.2018284375 -4.0339375000 -4.8627118320
2.2054565625 -2.4328459375 -4.0183061920
-1.6913915625 -2.5082168750 -5.6843349040
-1.1534750000 -2.3204009375 -4.8616109120
-0.5652215625 -2.3592890625 -5.6275002328
-1.6906659375 -2.5060668750 -2.4705680960
-0.5486262500 -2.3381115625 -2.4007309120
2.2093668750 -5.7861660000 -4.0958368640
-0.5008156250 -6.1838528438 -6.4520140617
0.6189850000 -6.1178599375 -6.4139446366
1.7328059375 -4.8086900000 -6.4589212338
1.6160878125 -2.4535665625 -6.4471773963
2.2456884375 -2.9726571875 -4.8904161600
6.7111309375 -6.2429133438 -4.0825740160
2.2983096875 -6.3748870625 -4.8330388000
2.8348421875 -6.2575938125 -5.6743463216
3.3825278125 -6.2870662813 -4.8180533360
3.9397675000 -5.7768820313 -6.4704775910
3.3509496875 -5.7150520625 -4.0460234720
3.9061737500 -6.3565623438 -5.6916320608
4.4715028125 -6.3464009063 -4.8538915200
4.5186415625 -5.8159502188 -4.0067271040
5.0193228125 -6.5035336563 -5.6921475504
5.5967456250 -6.5811432813 -4.9250239040
5.6025237500 -6.0642107188 -4.0340299200
6.2025753125 -6.5973607313 -5.6803029464
2.2419931250 -5.1921693750 -4.8331165120
2.8146187500 -4.6380203125 -6.4750704894
2.2702118750 -4.6040368750 -4.0868870320
2.8134093750 -5.2003662500 -5.6223777168
3.4002250000 -5.1623918750 -4.8493324160
3.8976543750 -4.6085115625 -6.4407235442
3.3747878125 -4.5905993750 -4.0515669280
3.9228631250 -5.2068162500 -5.7068558416
4.4909871875 -5.2974118750 -4.9145975440
4.4682375000 -4.7673025000 -4.0280460960
5.0796975000 -5.3113331250 -5.6928793384
5.6135962500 -5.5066176250 -4.8658073600
5.5846787500 -4.9434009375 -4.0764088640
6.1973884375 -5.4796606563 -5.6618657744
2.2511306250 -3.5025784375 -4.0070897600
2.7830406250 -4.0943928125 -5.6386013920
3.3662012500 -4.0546715625 -4.8990292400
3.3582059375 -3.5042043750 -4.0710467360
3.9668843750 -4.0468778125 -5.6572095304
4.5117884375 -4.2146046875 -4.8560674560
4.4495325000 -3.6346018750 -4.0866409440
5.0733146875 -4.1938303125 -5.6772734736
5.6088931250 -4.3473940625 -4.8143749680
5.6042303125 -3.7590734375 -4.0539371440
6.1582853125 -4.4211390625 -5.6416995104
2.8172793750 -2.9276818750 -5.7095589240
3.3423228125 -2.9290390625 -4.8501095360
3.3305650000 -2.3681040625 -4.0511913200
3.9220837500 -2.9494775000 -5.6472598040
4.4914306250 -3.0389309375 -4.8344117120
4.4714759375 -2.4781303125 -4.0507250480
5.0387803125 -3.1120040625 -5.6469774504
5.6064071875 -3.2001137500 -4.8430766000
5.6296809375 -2.6315596875 -4.0459975680
6.1633646875 -3.3240881250 -5.6565256648
2.7699659375 -5.6995438438 -3.2697971600
2.8293731250 -6.2534644688 -2.4395480560
3.9158084375 -5.8046640625 -3.2695769760
3.9372143750 -6.3267969375 -2.4100045440
5.0740000000 -5.9364483125 -3.1948827920
5.0536825000 -6.5262658750 -2.4650894000
6.1985575000 -6.0270090000 -3.2354096000
6.1798390625 -6.6161365469 -2.4843101680
2.8039628125 -4.6370931250 -3.2381554240
2.8551059375 -5.1886084375 -2.3814583360
3.9225675000 -4.6330887500 -3.2065136880
3.9393643750 -5.2356128125 -2.4758913680
5.0578615625 -4.7484362500 -3.2303194640
5.0506590625 -5.3289228125 -2.4786242400
6.1563906250 -4.9735950000 -3.2888625040
6.1931556250 -5.4956821875 -2.3822743120
2.8274650000 -3.5187168750 -3.2209292640
2.7736746875 -4.0845296875 -2.4160142720
3.9135912500 -3.4939112500 -3.2247630560
3.9327800000 -4.0644406250 -2.4344449680
5.0046221875 -3.6812300000 -3.2767782880
5.0916300000 -4.2061256250 -2.3924416320
6.1647756250 -3.8965928125 -3.2682040640
6.1927928125 -4.4486187500 -2.4179182160
2.7756096875 -2.3900878125 -3.2324435920
2.7835512500 -2.9543821875 -2.4321265600
3.8961493750 -2.4184678125 -3.2646681680
3.9417159375 -2.9413612500 -2.3973374880
5.0446121875 -2.5829696875 -3.2782807200
5.0593531250 -3.1291637500 -2.4453116960
6.1907234375 -2.7752468750 -3.2460172880
6.1203378125 -3.3464884375 -2.4527072880
5.0640562500 -5.9099065625 -6.4248784560
2.8296015625 -3.5351240625 -6.4398235098
2.7732043750 -2.3550428125 -6.4746415036
-6.1556663438 -1.7551525000 -6.4022454836
-5.6367907188 -1.9181762500 -4.0369311680
-4.5115062500 -2.0482378125 -4.1059005680
-3.3835759375 -2.0897462500 -4.0643894080
-6.1161950313 -1.1605968750 -5.6654586592
-5.5912644688 -1.3544193750 -4.8381936960
-5.6465342500 -0.7827612500 -4.0637677120
-5.0196587500 -1.3516512500 -5.6823040304
-4.5015087500 -1.4403656250 -4.8027699760
-4.4447218750 -0.8793365625 -4.0160266400
-3.9603403125 -1.5509293750 -5.6514199864
-3.3648306250 -1.5440762500 -4.8833055120
-3.3386678125 -0.9845253125 -4.0573694240
-2.7909418750 -1.4972868750 -5.6616209816
-6.1244362500 -0.0698078125 -5.6750819952
-5.6018344063 -0.1873859375 -4.7771379680
-5.5847150313 0.4147350000 -4.0344961920
-5.0900578125 -0.2921984375 -5.6914960648
-4.5304665625 -0.3274584375 -4.8541246560
-3.9449140625 0.1452190625 -6.4507934652
-4.4480543750 0.2068300000 -3.9988522880
-3.9718831250 -0.4337490625 -5.6809039192
-3.4197765625 -0.4268287500 -4.8741225440
-3.3247734375 0.1204268750 -4.0566182080
-2.8217675000 -0.3751078125 -5.6186022088
-6.6758615313 1.7112521875 -4.0402598320
-6.2422360938 0.9985271875 -5.6660181856
-5.6655859375 0.9404100000 -4.8820362160
-5.0738521875 1.4063821875 -6.4470749460
-5.5657359063 1.4981200000 -4.0551934880
-5.0713796875 0.8493171875 -5.6398033376
-4.5005950000 0.7313762500 -4.8771144560
-4.5028928125 1.3174662500 -4.1037246320
-3.9137525000 0.7181537500 -5.6675011896
-3.3803912500 0.7111259375 -4.8290366320
-3.4033828125 1.2762803125 -4.0345220960
-2.8324637500 0.6850975000 -5.6850071128
-6.1756331250 -1.7508256250 -3.1927975200
-5.0423815625 -1.9077487500 -3.2497863200
-3.9643043750 -2.1130468750 -3.2668441040
-2.8313484375 -2.0413040625 -3.2708592240
-6.1827133438 -0.6021478125 -3.2572725760
-6.1405706563 -1.1574121875 -2.4438999280
-5.0577003125 -0.8485378125 -3.2862202960
-5.0463053125 -1.3699934375 -2.3997336080
-3.8843646875 -1.0043321875 -3.2231181520
-3.9256984375 -1.5751840625 -2.4351961840
-2.7713500000 -0.9305065625 -3.2163831120
-2.8069996875 -1.5128475000 -2.4199775840
-6.1901980313 0.4464609375 -3.2842774960
-6.1364265313 -0.0824659375 -2.3820670800
-5.0416021875 0.2707790625 -3.2410048640
-5.0373828125 -0.2926418750 -2.4566835520
-3.8615075000 0.1629968750 -3.2286227520
-3.9585665625 -0.4276753125 -2.4703349600
-2.7606134375 0.1394946875 -3.2278844880
-2.8021890625 -0.3906012500 -2.3679234960
-6.1406660625 1.5517490625 -3.2389454960
-6.1756223750 0.9909350000 -2.4427731040
-5.0203171875 1.4247378125 -3.2030814080
-5.0820625000 0.8352212500 -2.4430450960
-3.9806846875 1.2630981250 -3.2290890240
-3.9376040625 0.6990993750 -2.4047848880
-2.8437512500 1.2590803125 -3.2704836160
-2.8214584375 0.7300056250 -2.4393667280
-2.2506871875 -0.9274025000 -4.0864855200
-2.2932840625 0.8332728125 -4.8389967200
-2.2405821875 1.3748846875 -4.0060017920
-6.2046863438 2.1288493750 -5.6297564712
-5.6286113125 2.0518659375 -4.8844452880
-5.0242543750 1.9650193750 -5.6338868640
-4.4579846875 1.9018228125 -4.8542153200
-3.8992400000 1.8055162500 -5.6666256344
-3.3218306250 1.8251350000 -4.8712212960
-2.7745750000 1.8248662500 -5.7084955648
-6.2289074375 2.1225337500 -2.4464644240
-5.0754646875 1.9641056250 -2.3634939120
-3.8600696875 1.7999396875 -2.3981405120
-2.7567568750 1.8473471875 -2.4811628320
-2.2434578125 1.9253921875 -4.8457188080
-2.2428934375 -0.3526806250 -4.8438019120
-6.6931734656 -0.0782196875 -4.8306426800
-2.8183006250 -2.0656796875 -6.4484706535
-2.8062337500 -0.9340540625 -6.4571969340
-5.0230987500 0.2963506250 -6.4597341013
-6.1164651250 1.5687206250 -6.4501391302
-2.2244975000 0.2418750000 -4.0997742720
-2.2234628125 -2.0314140625 -3.9973757600
-1.1229450000 -1.7689393750 -4.0246656240
-0.0283934375 -2.1417090625 -4.8143231600
-0.0303821875 -1.5500962500 -4.0296650960
0.5501312500 -2.1226009375 -5.6107416400
1.1234287500 -2.0687165625 -4.8424937600
1.1109721875 -1.4904471875 -4.0853327920
1.6774031250 -1.8764125000 -5.6425763608
-2.2247393750 -1.4865637500 -4.8666362880
-1.6794993750 -1.3674000000 -5.7415853344
-1.1507337500 -1.2373518750 -4.8984464000
-0.6016103125 -0.6271818750 -6.4415639995
-1.0770559375 -0.7147271875 -3.9666665680
-0.5569843750 -1.2239278125 -5.7026244232
-0.0299521875 -1.0307771875 -4.8708845440
-0.0923021875 -0.4903612500 -3.9793206720
0.5549956250 -1.0443893750 -5.6605472608
1.0658490625 -0.8883128125 -4.7827720880
1.0619656250 -0.3111453125 -4.0222306480
1.6186275000 -0.8039925000 -5.6338933400
-1.7092500000 -0.2058221875 -5.6652540176
-1.1316659375 -0.1928550000 -4.8892634320
-0.5861303125 0.5107325000 -6.4302984794
-1.1232003125 0.3640353125 -4.0665912480
-0.5390453125 -0.0517209375 -5.6505988296
0.0243218750 0.0446662500 -4.8394241360
0.5055590625 0.6487759375 -6.4469942550
-0.0668515625 0.6161496875 -4.0346386640
0.5739290625 0.0595281250 -5.6894043168
1.1024259375 0.2601768750 -4.8140641200
1.6458921875 0.2864606250 -5.6738411936
1.0799046875 0.8310690625 -4.0153013280
-1.7446712500 0.8953271875 -5.6600628560
-1.1693446875 0.9292300000 -4.8758451600
-0.5470540625 1.6450456250 -6.4594005873
-1.0760481250 1.4595543750 -4.0349106560
-0.6044859375 1.0985693750 -5.6447639536
-0.0012631250 1.1216012500 -4.9079790720
0.5465165625 1.7883028125 -6.4437179171
0.0208415625 1.6802921875 -4.0605556160
0.5777453125 1.2150859375 -5.6558107144
1.1488390625 1.3787009375 -4.8850410800
1.7152834375 1.4040978125 -5.6899198064
-1.6724446875 -1.9092940625 -3.1940538640
-0.5529128125 -1.7438515625 -3.2037678640
0.5597659375 -1.5199290625 -3.2562234640
0.5350678125 -2.0410890625 -2.3741793120
1.6568437500 -1.3357950000 -3.2587232000
1.6669353125 -1.8467693750 -2.3763422960
-1.7115075000 -1.3348140625 -2.4436538400
-0.5542028125 -0.3933828125 -2.9211811280
-0.5800296875 -1.1686056250 -2.5183739280
0.4974293750 -0.4592131250 -3.2229756800
1.6409740625 -0.2655115625 -3.2356815920
-1.7118031250 0.3257787500 -3.2344252480
-1.6873737500 -0.7664212500 -3.2838759840
-0.5957381250 0.4803100000 -3.1374147680
-1.5877884375 -0.2313534375 -2.3966510320
0.5644153125 1.2616065625 -2.4776398880
0.5332671875 0.6912384375 -3.2743044560
1.7053262500 0.8672159375 -3.2853784160
1.6104037500 0.3141553125 -2.4561913760
-1.6568706250 1.4289571875 -3.2569099200
-1.7209003125 0.8801428125 -2.4202107200
-0.5546059375 1.6491440625 -3.2153599040
-0.5675059375 1.0164931250 -2.4434725120
0.5249628125 1.8831178125 -3.1484498720
1.0587675000 1.9153140625 -4.0921973520
1.6481765625 1.3973790625 -2.4370871760
2.2247528125 -1.3144965625 -4.0800483760
2.1993425000 -0.7365228125 -4.8564689680
2.2063031250 -0.1976118750 -4.0319446480
1.5909059375 1.9639981250 -3.2528170880
2.1690678125 2.1267934375 -4.0431740320
-1.6738556250 2.0236740625 -5.6808197312
-1.1611612500 2.0380387500 -4.7928228400
-0.5978612500 2.2122828125 -5.6490122096
1.6436615625 1.9853906250 -6.4758170750
-1.6858821875 1.9843559375 -2.4509976240
-0.5419478125 2.1690409375 -2.3113750640
0.5813465625 -0.9948453125 -2.3424469120
0.5293703125 0.1554853125 -2.4283834320
1.5648909375 -0.7998537500 -2.3602429600
2.1870740625 0.3779700000 -4.8314068480
2.2299800000 1.5426653125 -4.7984828640
-0.5373656250 -1.7954381250 -6.4608628681
-1.7048962500 -0.7591650000 -6.4582453984
6.6417262500 -0.6287137500 -4.0289656880
6.6768115625 0.5071715625 -4.0740127440
6.6782762500 1.1170190625 -4.7756225840
2.2630362500 -1.8916103125 -4.8648489120
2.2509021875 0.9483784375 -4.0594546960
6.6898459375 -2.2065853125 -4.8737339840
6.7149740625 -1.6745678125 -4.0162597760
6.7151621875 -1.1527493750 -4.9207238400
2.8049840625 -1.7939734375 -5.6847649104
3.3774753125 -1.8089293750 -4.8536065760
3.3087828125 -1.2585025000 -4.0051340080
3.9095331250 -1.8557725000 -5.6801773120
4.4720537500 -1.9030725000 -4.8456281440
4.4849000000 -1.3603856250 -4.0361151920
5.0330962500 -2.0046331250 -5.6615886016
5.5800965625 -2.0592565625 -4.8227160560
5.6254078125 -1.4803556250 -4.0670704720
6.1100178125 -2.2308265625 -5.6838712224
2.7813743750 -0.1201581250 -6.4669720933
2.7908881250 -0.0943581250 -3.2410307680
2.7703153125 -0.6682871875 -5.6478970424
3.3503987500 -0.7316853125 -4.8744204400
3.3362087500 -0.1748487500 -4.0401562160
3.9182271875 -0.7224671875 -5.6908497600
4.4330715625 -0.7758678125 -4.8085983760
5.0658434375 -0.3433146875 -6.4489288953
4.4733034375 -0.1969131250 -4.0649463440
4.9692950000 -0.9287328125 -5.6753902528
5.5522003125 -0.9175796875 -4.8768036080
6.1218025000 -0.4876334375 -6.3917070888
5.5689837500 -0.3785075000 -4.0310509600
6.1149896875 -1.0826728125 -5.6605874120
2.7428625000 0.4578156250 -5.6539495120
3.3062296875 0.3856831250 -4.8323393920
3.9470909375 0.9579459375 -6.4473516007
3.3905096875 0.9752265625 -4.0864855200
3.8434071875 0.3802140625 -5.6636505600
4.4376000000 0.3490390625 -4.8887583040
5.0031306250 0.8039790625 -6.3996230922
4.4639509375 0.9006484375 -4.0461270880
5.0051731250 0.2143415625 -5.6518357456
5.6113118750 0.1425046875 -4.9292462560
5.5243712500 0.6557231250 -4.0288361680
6.2237796875 0.1164762500 -5.6580293920
2.7682056250 1.5090850000 -5.6828013872
3.3183503125 1.5558071875 -4.8595256400
3.3290196875 2.1020012500 -4.0277870560
3.8917418750 1.5130490625 -5.6373683616
4.4939568750 1.4384978125 -4.9178096400
4.4001362500 1.9493109375 -4.0169721360
5.0925168750 1.3962234375 -5.6663782512
5.6123331250 1.2266959375 -4.8192190160
5.5601821875 1.8091175000 -4.0536133440
6.1620746875 1.2122506250 -5.6936383256
2.7297340625 -1.2611228125 -3.1974213840
2.8410234375 -1.8271103125 -2.4413872400
3.9128521875 -1.2774359375 -3.2684112960
3.9367575000 -1.8453046875 -2.4686252960
5.0663271875 -1.4615968750 -3.2547339840
4.9897871875 -2.0283771875 -2.4446381920
6.1375915625 -1.6642881250 -3.1958023840
6.1166559375 -2.2275075000 -2.4087482000
2.7182181250 0.4453053125 -2.4298211040
2.7343296875 -0.6626165625 -2.4723425200
3.9331696875 -0.1726987500 -3.2327803440
3.8243125000 -0.7338890625 -2.4246014480
5.0047162500 -0.3740596875 -3.1951806880
4.9701012500 -0.9267843750 -2.3898253280
6.1207006250 -0.4711725000 -3.1810112000
6.1709165625 -1.0646531250 -2.4585745440
2.7309703125 2.0653034375 -3.2471570640
2.8348153125 1.0032571875 -3.2540345760
3.8970496875 0.9034703125 -3.2000506400
3.8715721875 0.3636590625 -2.3669520960
5.0005640625 0.8115309375 -3.1819437440
5.0563296875 0.2201331250 -2.4543910480
6.1376184375 0.6836865625 -3.2621166240
6.1863428125 0.1193250000 -2.4485496960
3.8615075000 2.0789559375 -3.1830705680
3.9293400000 1.4997056250 -2.4438092640
5.0014509375 1.9611762500 -3.2593319440
5.0738118750 1.4044471875 -2.4540283920
6.1405746875 1.7255496875 -3.3001048400
6.1686859375 1.1994984375 -2.3888021200
2.7589606250 1.5288515625 -2.3840098800
2.7586112500 -1.2106650000 -6.4623177662
6.1923493750 -1.6490500000 -6.4448540666
3.8800378125 2.0721968750 -6.4364085854
-6.1243502500 6.6819984375 -5.6636907112
-6.7146964169 6.6268509375 -4.8631651520
-5.6102073125 6.5138012500 -4.8061634000
-5.0570687500 6.4222112500 -5.6350201640
-4.4640181250 6.3986015625 -4.8765704720
-3.8822953125 6.2668871875 -5.6367829312
-3.3099921875 6.2925796875 -4.8539044720
-2.7527793750 6.3436421875 -5.6788315992
-6.1478309375 6.6712350000 -2.3946823280
-5.0245634375 6.4136381250 -2.3809402560
-3.8931662500 6.2597518750 -2.4188766640
-2.7738090625 6.3498771875 -2.4445993360
-5.6028798438 2.6195465625 -4.0960311440
-3.9591309375 2.3873465625 -6.4428077801
-4.4904093750 2.4682671875 -4.0548437840
-2.8546893750 2.4024637500 -6.4617645863
-3.3973762500 2.3791765625 -4.0429408960
-6.1424129375 3.2368518750 -5.6567639816
-5.5788173125 3.2120731250 -4.8280652320
-5.6231624063 3.7720137500 -4.0202360400
-5.0663137500 3.0690175000 -5.6964268912
-4.4861631250 3.0164903125 -4.8944312800
-3.9014706250 3.5258925000 -6.4699169766
-4.4650796875 3.5210953125 -3.9859132400
-3.9144243750 2.9674300000 -5.6786269576
-3.3557468750 2.9198881250 -4.8920740160
-3.3251631250 3.4621046875 -4.0633662000
-2.7645103125 2.9697412500 -5.6611158536
-6.6749984406 4.4975312500 -4.8461591760
-6.1566795313 4.9529818750 -6.4203060114
-6.7070800956 5.0535481250 -4.0111178320
-6.1474654375 4.3440750000 -5.7037654944
-5.5705478750 4.2954312500 -4.8934469280
-5.6035530625 4.8211062500 -3.9984119200
-5.0071484375 4.2318853125 -5.6994615448
-4.4874128125 4.0698021875 -4.8287516880
-4.4729809375 4.6306700000 -4.0483677840
-3.9343656250 4.1118884375 -5.6848983160
-3.4019315625 4.0366250000 -4.8359918560
-2.7162293750 4.6508934375 -6.4525427623
-3.2807253125 4.5962028125 -4.0427595680
-2.8443425000 4.0912350000 -5.6585643096
-6.7099143734 5.5630040625 -4.9108155600
-6.1530514063 6.1106762500 -6.4721623872
-6.1273333750 5.5451321875 -5.6865289728
-5.5894262188 5.3516187500 -4.8706125520
-5.6052851563 5.9132121875 -4.0747510080
-5.0009000000 5.3592915625 -5.6648784096
-4.4747009375 5.2147981250 -4.7911779360
-4.4691109375 5.8390506250 -4.0982718400
-3.9483943750 5.1799815625 -5.6516090856
-3.3719121875 5.1594625000 -4.8322228240
-3.3442443750 5.7357028125 -4.0454276800
-2.8510478125 5.2345781250 -5.6960525784
-6.1307438125 2.6975781250 -3.2220431360
-5.0701165625 2.4874290625 -3.2318607520
-3.9574512500 2.3515221875 -3.2098294000
-2.8355409375 2.4204565625 -3.2386994080
-6.2165301563 3.7622850000 -3.2327285360
-6.1685314063 3.2335462500 -2.3681177760
-5.0681278125 3.6329087500 -3.2372099280
-5.0076053125 3.0687890625 -2.4544558080
-3.8639128125 3.5486556250 -3.2340755440
-3.9183884375 2.9614771875 -2.4885454720
-2.7640803125 3.5229631250 -3.2151915280
-2.7787675000 2.9612756250 -2.3976224320
-6.1705900313 4.9219143750 -3.1938854880
-6.1152906875 4.3329084375 -2.4586393040
-5.0080890625 4.8179484375 -3.2354096000
-5.0099031250 4.2226268750 -2.4899054320
-3.8718543750 4.6625706250 -3.2858317360
-3.9315034375 4.1159465625 -2.4408303040
-2.7293578125 4.6201081250 -3.2207479360
-2.8007646875 4.0772196875 -2.3902656960
-6.1202948125 6.1313700000 -3.2273275520
-6.1386880625 5.5320709375 -2.4943350160
-5.0292665625 5.8877212500 -3.2711959760
-5.0204515625 5.3598290625 -2.3936720720
-3.9388134375 5.7245631250 -3.2668182000
-3.9130134375 5.1911884375 -2.3920919280
-2.7914928125 5.7993696875 -3.2526487120
-2.8336193750 5.2101353125 -2.4866674320
-2.2640440625 2.4803878125 -4.0264918560
-2.2406896875 3.6094871875 -4.1015227920
-2.2486581250 4.1720615625 -4.9190918880
-2.2779921875 5.2536862500 -4.8983427840
-6.6998774344 2.7890740625 -4.0551675840
-6.7120809956 3.3529518750 -4.8653669920
-6.7185516289 6.0863275000 -4.0056261840
-6.2001861250 2.6678275000 -6.4625327694
-5.0280706250 3.6463328125 -6.4600977934
-2.7640534375 3.5252609375 -6.4498570356
-2.2092728125 6.3413175000 -4.8168617520
-2.1739456250 4.7119668750 -4.0487174880
-1.6945090625 6.5379350000 -5.7190566256
-1.1481134375 6.5441028125 -4.8687733680
-0.5968265625 6.6629037500 -5.6986947864
-1.6987687500 6.5366853125 -2.4713452160
-0.5812525000 6.6080921875 -2.4620715840
1.0743415625 2.5408700000 -4.8752234640
-1.1239796875 2.6439356250 -4.0715000560
-0.0608450000 2.2425037500 -4.8266405120
0.0233006250 2.8210553125 -3.9783751760
0.5024818750 2.3307343750 -5.6616935128
1.6603375000 2.5046021875 -5.6526802160
1.1071290625 3.0771203125 -4.1642881840
-2.2070421875 3.0321718750 -4.8636573280
-1.6909212500 3.6473271875 -6.4644604415
-1.6161281250 3.0919150000 -5.6522463240
-1.0507318750 3.2219900000 -4.8227031040
-1.1623034375 3.7983512500 -4.0723548880
-0.5171018750 3.3051546875 -5.6712818784
-0.0186915625 3.9075175000 -3.9529633520
0.0501353125 3.3716165625 -4.8291791040
0.6015431250 3.4871387500 -5.5487611392
1.7175275000 4.1634346875 -6.4289828153
1.1314106250 3.9809937500 -4.1479039040
1.5275615625 3.6386465625 -5.4920663496
-1.6426671875 4.7588503125 -6.4138082521
-1.6336640625 4.1945828125 -5.6185348584
-1.0381006250 4.3573646875 -4.8786168880
-1.1386803125 4.9335243750 -4.0847888080
-0.4609600000 4.4183575000 -5.6558197808
0.0694718750 4.4584281250 -4.7966307280
-0.0549996875 5.0658434375 -4.0794007760
0.5930640625 4.6013225000 -5.7120651360
1.1238184375 4.5680915625 -4.8137144160
1.1213593750 5.1886756250 -4.0614104480
1.6552715625 4.7903478125 -5.7224267360
-1.6239084375 5.9464431250 -6.4615362426
-2.1989125000 5.7755450000 -4.0131642480
-1.7065759375 5.3666687500 -5.6948454520
-1.1465278125 5.4801350000 -4.9159575040
-0.5007081250 6.0701084375 -6.4242922485
-1.0485281250 6.0159015625 -4.0261162480
-0.5257690625 5.5057871875 -5.6247764272
0.0414546875 5.6301781250 -4.8508348480
0.0138675000 6.2330112500 -4.0794525840
0.6274640625 5.6461956250 -5.6154419208
1.1968646875 5.7553484375 -4.8113312480
1.0745431250 6.3691196875 -4.0849312800
1.7044125000 5.9016693750 -5.6976366080
-1.6659946875 2.5581103125 -3.2561975600
-0.5791562500 2.7008568750 -3.2639817120
0.6037871875 2.8698200000 -3.1725924000
1.6201459375 3.0600009375 -3.1961132320
-1.7099756250 3.6599046875 -3.2314074320
-1.6327637500 3.0905981250 -2.4244071680
-0.6145371875 3.8272956250 -3.2488926320
-0.5274890625 3.2524259375 -2.4308443120
0.6158540625 4.0686465625 -3.2507706720
0.4841396875 3.4577912500 -2.4795826880
1.6611975000 4.2233928125 -3.2229109200
1.6358812500 3.6567334375 -2.4316991440
-1.6316484375 4.7881575000 -3.1677483520
-1.6041553125 4.2042846875 -2.4069478720
-0.5824887500 4.9135293750 -3.2316017120
-0.4505325000 4.3510759375 -2.3803315120
0.5385346875 5.0981875000 -3.3151680160
0.5243043750 4.5863128125 -2.3828830560
1.6702678125 5.3452493750 -3.2801587600
1.6625681250 4.7933040625 -2.4531865120
-1.6294850000 5.9566018750 -3.2366141360
-1.7007709375 5.3822562500 -2.4560618560
-0.5159596875 6.0062668750 -3.1785762240
-0.5014471875 5.4269225000 -2.3692446000
0.5340465625 6.1669121875 -3.2223669360
0.6400415625 5.6327043750 -2.4016505040
1.6303584375 6.4537087500 -3.2786433760
1.7039690625 5.8937815625 -2.4494174800
2.1836340625 3.2139946875 -4.0468524000
2.1927043750 3.7428409375 -4.9235085200
2.2124575000 4.8624400000 -4.8556400400
1.6771343750 2.4972787500 -2.4035544480
2.2252096875 6.5122559375 -4.0175938320
-0.5845178125 3.8622600000 -6.4749218677
0.5755281250 2.9408103125 -6.4364846137
1.6706171875 3.1227809375 -6.4128044721
0.5532218750 6.2021587500 -6.4616459460
6.6381115625 2.2456078125 -4.8840308240
2.2413615625 2.6453734375 -4.8778656720
2.2445193750 4.2894515625 -4.0254297920
2.2531731250 5.9539546875 -4.8344635200
6.6951000000 3.9288025000 -4.0815637600
2.6920418750 3.2060665625 -6.4192822854
2.8066234375 2.6259428125 -5.6640132160
3.3709715625 2.6542018750 -4.8640588400
3.2569812500 3.1877781250 -4.0286030320
3.9385984375 2.6733771875 -5.6673418800
4.4743112500 2.5263978125 -4.8124062640
4.4537653125 3.1003671875 -4.0416197920
5.0119053125 2.5012428125 -5.6987025576
5.5465565625 2.3997762500 -4.7925638000
5.6444621875 2.9859065625 -4.0400785040
6.0617503125 2.2817815625 -5.6741896024
2.8135168750 3.7761256250 -5.6359009000
3.3570771875 3.7641393750 -4.8218871280
3.3326612500 4.3447468750 -4.0575766560
3.8933409375 3.7634003125 -5.7075332312
4.4204806250 3.6814853125 -4.8068887120