ITEM: TIMESTEP
28000
# source: voids-relax.28000.cfg
ITEM: NUMBER OF ATOMS
2298
ITEM: BOX BOUNDS pp pp pp
-6.7187500000 6.7187500000
-6.7187500000 6.7187500000
-6.4760000000 6.4760000000
ITEM: ATOMS x y z
-6.6607087344 -6.0680027813 -4.0405188720
-6.2343415625 -6.7045629563 -5.6895739880
-5.0313359375 -6.3667251250 -6.4395065743
-5.5514545313 -6.2026236875 -4.1057192400
-4.5127828125 -6.3751531250 -4.0966916960
-3.4371243750 -6.5739797500 -4.0188372240
-6.1721985000 -5.0766471875 -6.4391851057
-6.6858490875 -4.9150612500 -4.0993209520
-6.2535719688 -5.6326062813 -5.6166904936
-5.6299994063 -5.6428900000 -4.9141701280
-5.1061021875 -5.2260587500 -6.4276303674
-5.6317368750 -5.0911328125 -4.0807736880
-5.0482537500 -5.7920744688 -5.6360848184
-4.4321443750 -5.8235424063 -4.9159704560
-4.5534446875 -5.2957187500 -4.0304422160
-3.8644771875 -5.9211698750 -5.6753721200
-3.2988793750 -6.0432952500 -4.8531014480
-3.4152078125 -5.4801161875 -4.0441972400
-2.7628171875 -5.9886892813 -5.7001376392
-6.7087786225 -4.3536693750 -4.9075257520
-6.1360798438 -4.5041828125 -5.6548276576
-5.5451805625 -4.5387843750 -4.8959984720
-5.6846980938 -4.0044959375 -4.0144205920
-4.9900559375 -4.6240990625 -5.7218607336
-4.4683450000 -4.7413278125 -4.8484905360
-4.5099071875 -4.1958325000 -3.9961841760
-3.9130671875 -4.7778912500 -5.7001777904
-3.3973225000 -4.9068240625 -4.8083134320
-3.3298125000 -4.3230453125 -4.0693888800
-2.8399618750 -4.9043381250 -5.6168316704
-6.6576744125 -3.2452771875 -4.8839531120
-6.1117794688 -3.3394606250 -5.7183274280
-5.5730714375 -3.4695087500 -4.8404214400
-5.6238880313 -2.9127662500 -4.0044346000
-5.0443300000 -3.4808365625 -5.7128318944
-4.5186684375 -3.6412400000 -4.8222497840
-4.4541012500 -3.0676065625 -4.0484843520
-3.9731865625 -3.6952856250 -5.6833505520
-3.4278121875 -3.7454209375 -4.8427009920
-2.8105068750 -3.2549925000 -6.4568256002
-3.3339378125 -3.1633084375 -4.0654514720
-2.8588550000 -3.8205231250 -5.6572574528
-6.0936684063 -6.1539302188 -3.2492034800
-5.0370065625 -6.3617290625 -3.1947791760
-3.9935443750 -6.4998141563 -3.2052443920
-2.8363203125 -6.5895173969 -3.2813892000
-6.1648858125 -5.0622287500 -3.1997786480
-6.2590423750 -5.6265835938 -2.3906542560
-5.1065993750 -5.2277115625 -3.1937559680
-5.0510218750 -5.7941720625 -2.3911723360
-3.9840978125 -5.3538225000 -3.2429347120
-3.8732115625 -5.9318620938 -2.4496765200
-2.8446515625 -5.4370503438 -3.2555370080
-2.7983728125 -6.0234628438 -2.4762281200
-6.2496737500 -3.9426834375 -3.2100884400
-6.1637933438 -4.5044381250 -2.3989046800
-5.0991146875 -4.0772734375 -3.2574280000
-4.9970434375 -4.6370393750 -2.4607116240
-3.8937171875 -4.2360240625 -3.2860260160
-3.9094390625 -4.7873243750 -2.4576808560
-2.7868165625 -4.3327068750 -3.2398521360
-2.8150084375 -4.9040156250 -2.4169079600
-6.2100344688 -2.7933203125 -3.2575316160
-6.0987625625 -3.3603693750 -2.4671876240
-5.0122546875 -2.9171334375 -3.2774647440
-5.0357165625 -3.4963837500 -2.4953841280
-3.8694087500 -3.1340281250 -3.2453308320
-3.9780375000 -3.6891984375 -2.4458686320
-2.7670096875 -3.2695856250 -3.2375596320
-2.8572290625 -3.8015090625 -2.3716407200
-2.2745387500 -5.4242699375 -4.0092786480
-2.2996803125 -3.7409596875 -4.8652892800
-5.6582947500 -2.3613315625 -4.8424290000
-5.0927856250 -2.3741375000 -5.6487117232
-4.5316759375 -2.5062818750 -4.8549535840
-3.9536081250 -2.5814646875 -5.6157812632
-3.3417046875 -2.6358328125 -4.9091447520
-2.7708662500 -2.6824609375 -5.6928223496
-5.0910656250 -2.3732371875 -2.4293418800
-3.9616437500 -2.5950365625 -2.3958998160
-2.7916003125 -2.7080325000 -2.4470213600
-6.2305495000 -6.7098674631 -2.4401697520
-3.9876721875 -6.4944593125 -6.4278514581
-6.2471999063 -3.9293668750 -6.4411481108
-3.8861921875 -3.1292443750 -6.4688954006
-2.2346831250 -4.9004681250 -4.8728662000
-2.2389025000 -6.5762627813 -4.0100816720
-0.5677612500 -6.3426505000 -6.4677473094
-1.1067931250 -6.4161012188 -4.0770176080
-0.0584396875 -6.2224547500 -4.0668373360
0.5468928125 -6.6986687313 -5.7089462944
1.0963521875 -6.1017913750 -4.0283051360
1.6152278125 -6.5259084375 -5.6855562776
-2.2359328125 -6.0036989688 -4.8065519600
-1.7107953125 -5.9762004688 -5.7117465168
-1.1818281250 -5.8269259688 -4.8417036880
-1.1066721875 -5.2760596875 -4.0130994880
-0.6158271875 -5.7906165000 -5.6274069784
-0.0139346875 -5.6806104063 -4.8988608640
0.0199009375 -5.1228721875 -4.0827164880
0.5698978125 -5.5828297500 -5.6276699040
1.1484225000 -5.5581867188 -4.8417554960
1.6188290625 -4.8276637500 -6.4638713845
1.0718287500 -4.9617834375 -4.0782480480
1.6765028125 -5.4165930938 -5.7017747720
-1.7039825000 -4.2263356250 -6.4338874786
-2.2260293750 -4.3245637500 -4.0891018240
-1.6779540625 -4.8233503125 -5.6677472776
-1.1131356250 -4.7267750000 -4.8545002640
-0.6164184375 -4.0664965625 -6.4469293655
-1.1741150000 -4.1697637500 -4.0068954800
-0.5680703125 -4.6769218750 -5.7338659424
-0.0773059375 -4.5271609375 -4.8214467600
0.0095137500 -3.9673278125 -4.0087605680
0.4910331250 -4.4853031250 -5.6303600344
1.0864084375 -4.4147965625 -4.8924237200
1.1465681250 -3.8453690625 -4.0993598080
1.6788946875 -4.2902040625 -5.6016739448
-2.2288781250 -3.1902103125 -4.0659825040
-1.7073418750 -3.6773062500 -5.5985784168
-1.0975212500 -3.6440484375 -4.8943794720
-1.1138209375 -3.0881928125 -4.0925341040
-0.5346512500 -3.4980768750 -5.6681967120
0.0281112500 -3.4240496875 -4.8495137440
0.5074403125 -2.7865343750 -6.4430459674
-0.0590578125 -2.8656543750 -4.0038129040
0.5720746875 -3.3969865625 -5.7268433680
1.0701087500 -3.2282250000 -4.8088444640
1.1122487500 -2.6840331250 -3.9896693200
1.6306003125 -3.2167762500 -5.6474139328
-1.6585100000 -6.5185339375 -3.2371063120
-0.5813600000 -6.3716647500 -3.1983798320
0.5191578125 -6.1828759375 -3.2766487680
1.6769193750 -5.9512295625 -3.2662094560
1.6475046875 -6.4914560313 -2.4378642960
-1.6699050000 -5.4024649063 -3.2676082720
-1.7439456250 -5.9480408438 -2.4356365520
-0.5225306250 -5.2311515625 -3.2309541120
-0.5922040625 -5.7912682188 -2.4196149280
0.5413162500 -5.0546365625 -3.1963852240
0.5679493750 -5.6468110625 -2.4279689680
1.6344434375 -4.8838593750 -3.2623497600
1.6412831250 -5.4124167188 -2.3966251280
-1.7252540625 -4.2297487500 -3.1812702400
-1.7036600000 -4.8413834375 -2.4667343040
-0.5693200000 -4.1185265625 -3.2648754000
-0.6210543750 -4.6642771875 -2.4306241280
0.6026046875 -3.9564703125 -3.2543324720
0.5204612500 -4.4906781250 -2.3952133600
1.6472359375 -3.7479068750 -3.1883679360
1.6928696875 -4.3271706250 -2.4238372800
-1.6758309375 -3.1100018750 -3.2371063120
-1.6701065625 -3.6491009375 -2.4034637840
-0.6182459375 -2.9325865625 -3.1858811520
-0.5338584375 -3.5445706250 -2.4824450800
0.5425793750 -2.8502550000 -3.2489314880
0.5232293750 -3.3960862500 -2.4199646320
1.7292450000 -2.6450106250 -3.2837205600
1.6478003125 -3.1645984375 -2.3982052720
2.1944646875 -6.5004605000 -4.9018527760
2.2022046875 -4.7874856250 -4.0434460240
2.2115303125 -3.1192468750 -4.8710270160
-2.2255321875 -2.6013656250 -4.8516508240
-1.6775912500 -2.5951709375 -5.7123254712
-0.6144565625 -2.3914584375 -5.6119824416
-1.1645206250 -2.4697050000 -4.8077046880
0.0111934375 -2.3484315625 -4.9131469200
-1.7044125000 -2.5425362500 -2.3888927840
-0.5502253125 -2.3641400000 -2.4061837040
2.2127665625 -5.3731993750 -4.8184548480
2.1885925000 -3.6808940625 -4.0701271440
0.5837384375 -2.2675781250 -2.4891801200
1.0893781250 -6.6766732906 -4.8272104000
0.5254062500 -6.7111616691 -2.3866391360
-1.7076778125 -5.3793094063 -6.4620087315
-0.5584221875 -2.9260828125 -6.4717161649
6.6755484375 -6.6554306188 -4.7859841840
2.2916446875 -4.2500931250 -4.8725553520
2.2999087500 -2.5563231250 -4.0730542960
6.6292025000 -5.5022746250 -4.8360436640
6.6624603125 -3.7962953125 -4.0826776320
6.6540887500 -2.7011525000 -4.0219327520
2.8239578125 -5.8255177188 -6.4577648792
2.2634259375 -5.9522655938 -4.0498184080
2.7655584375 -6.3827291875 -5.6495510128
3.3524681250 -6.3030219688 -4.8899628400
3.8659150000 -5.7360817500 -6.4213608223
3.3173425000 -5.7326229375 -4.0754763200
3.9308315625 -6.3309088125 -5.6585397008
4.4998828125 -6.2752950313 -4.8818937440
4.3897221875 -5.7462861875 -4.0318280800
5.0837959375 -6.3495533438 -5.6669753384
5.6352171875 -6.4791795313 -4.8537101920
5.5627353125 -5.9419630625 -4.0004324320
6.1719109375 -6.5023162188 -5.7216910624
2.7537468750 -4.7155815625 -6.4694058519
2.7481434375 -5.2548687500 -5.6525856664
3.3705684375 -5.1864315625 -4.9198301520
3.3393531250 -4.6751750000 -4.0366980320
3.9408559375 -5.1486453125 -5.6581265320
4.5283837500 -5.1975846875 -4.8621160400
4.4430959375 -4.6524790625 -4.0130217760
5.0552546875 -5.2160746875 -5.7263732104
5.5621843750 -5.3705925000 -4.7898697840
5.6312262500 -4.7690225000 -4.0556597600
6.0879534375 -5.4078116875 -5.6887178608
2.8313484375 -4.1201390625 -5.7142320056
3.3553975000 -4.0798534375 -4.8207473520
3.3435590625 -3.5228825000 -3.9897988400
3.8901025000 -4.0154609375 -5.7160154960
4.4145009375 -4.0917321875 -4.8200220400
5.0996118750 -3.5678443750 -6.4739288586
4.5417003125 -3.5108693750 -4.0509322800
4.9509528125 -4.1110150000 -5.6596432112
5.5310496875 -4.2115543750 -4.8648748160
5.6182725000 -3.6336478125 -4.1080635520
6.1028959375 -4.3364290625 -5.6052046600
2.7793184375 -2.9959040625 -5.6504408152
3.3457762500 -3.0032409375 -4.8456151920
3.9118443750 -2.3202262500 -6.4515831486
3.3820575000 -2.3945490625 -4.0706970320
3.8768262500 -2.9187190625 -5.6977674232
4.4165300000 -2.9523531250 -4.8443329440
4.4702531250 -2.3604043750 -4.0762275360
4.9929987500 -3.0247946875 -5.6128411592
5.6086915625 -3.0533493750 -4.9046892640
6.0941481250 -2.6440834375 -6.4677701826
5.5513671875 -2.5147340625 -4.0680807280
6.1920000000 -3.1948462500 -5.6430814888
2.7788615625 -5.8152178750 -3.1810500560
2.8072281250 -6.4237323750 -2.4646101760
3.8564684375 -5.7815421563 -3.2025503760
3.9265046875 -6.3530188750 -2.3999667440
4.9901634375 -5.7945590625 -3.2744469280
5.0683965625 -6.3368616250 -2.4486403600
6.1852409375 -5.9513988750 -3.3038091120
6.1648428125 -6.5007977813 -2.4759172720
2.7655718750 -4.7077071875 -3.2448904640
2.7651418750 -5.2291762500 -2.4004848240
3.8792046875 -4.5974525000 -3.2019545840
3.9550996875 -5.1908256250 -2.4724590880
5.0515728125 -4.6659837500 -3.2970093120
5.0416021875 -5.2256556250 -2.4701406800
6.1958431250 -4.8690109375 -3.2640594240
6.0813959375 -5.4074542500 -2.4375923040
2.7465175000 -3.5934025000 -3.2706649440
2.7799500000 -4.1254468750 -2.4316732400
3.9516059375 -3.4761468750 -3.2886034640
3.8683471875 -4.0078150000 -2.4460499600
5.0752093750 -3.5599700000 -3.2159686480
4.9646321875 -4.1263068750 -2.4419830320
6.1267475000 -3.7699712500 -3.1991180960
6.0875503125 -4.3373696875 -2.3885430800
2.8292790625 -2.4239906250 -3.2062157920
2.7943953125 -3.0288125000 -2.4697909760
3.9278484375 -2.3721487500 -3.2283896160
3.8695834375 -2.9461584375 -2.4254303760
5.0147003125 -2.4659962500 -3.2179373520
4.9875834375 -3.0054581250 -2.3728711600
6.0822693750 -2.6526028125 -3.2204629920
6.1978318750 -3.2073834375 -2.4026607600
2.7349478125 -3.5398540625 -6.4717461099
6.1310743750 -3.7742981250 -6.4252045874
4.9889406250 -2.4707665625 -6.4371983984
-6.1917702188 -2.2090578125 -5.7109124080
-6.7040319063 -1.5978128125 -4.0020902880
-5.5501013750 -1.8001546875 -4.0567218240
-4.4530128125 -1.9253518750 -4.1120916240
-2.8479437500 -2.0956587500 -6.4661637331
-3.3821918750 -2.0807968750 -4.0755669840
-6.1419426250 -0.5094828125 -6.4506328604
-6.6900313750 -0.4997137500 -4.0581465440
-6.1920900313 -1.0859650000 -5.6694077240
-5.6466404063 -1.2372712500 -4.8631910560
-5.5940688750 -0.6506840625 -4.1049939280
-5.0446928125 -1.2749903125 -5.6186514264
-4.4629431250 -1.3318981250 -4.8601214320
-4.5124603125 -0.7670393750 -4.0583537760
-3.8972243750 -1.4670256250 -5.6492414600
-3.3186459375 -1.5073246875 -4.8650431920
-3.3639571875 -0.9754281250 -4.0334600320
-2.7667006250 -1.5391178125 -5.6662228272
-6.1160095938 0.0337818750 -5.6253592672
-5.5523373750 -0.0743228125 -4.8494360320
-5.6084913438 0.4974025000 -4.0702437120
-4.9882284375 -0.2014415625 -5.6562731008
-4.4168390625 -0.2096653125 -4.8570129520
-3.9078265625 0.2371853125 -6.4686140572
-4.4497609375 0.3355075000 -3.9972980480
-3.8742731250 -0.3549650000 -5.7287537880
-3.3628956250 -0.3949012500 -4.8300468880
-2.7627096875 0.1302228125 -6.4669646718
-3.3182025000 0.1719462500 -4.0340428720
-2.8067578125 -0.4454800000 -5.6871208792
-6.1287725313 1.1117112500 -5.6682783096
-5.5745952500 1.0892975000 -4.8171726000
-4.9750193750 1.4855425000 -6.4651122768
-5.5363830313 1.6376012500 -4.0005878560
-5.0645265625 0.9087915625 -5.7069529816
-4.5073003125 0.8708171875 -4.8654965120
-4.3936190625 1.4171993750 -4.0645318800
-3.9359646875 0.8014931250 -5.6646478640
-3.3546450000 0.6987903125 -4.9016066880
-2.8156937500 1.2660275000 -6.4522317848
-3.3418928125 1.2683118750 -4.0989194400
-2.7676950000 0.6816709375 -5.6735562496
-6.1059744688 -1.6326965625 -3.2653028160
-6.1587757813 -2.2081575000 -2.4984408000
-4.9850706250 -1.8201496875 -3.2398521360
-3.9287353125 -2.0306078125 -3.2137668080
-2.8444768750 -2.1089081250 -3.1967737840
-6.1295720625 -0.5166315625 -3.2345029600
-6.2047817500 -1.0766662500 -2.4325669280
-5.0638546875 -0.7402987500 -3.2280787680
-5.0749943750 -1.2752053125 -2.3739979840
-3.9465668750 -0.9351559375 -3.2671679040
-3.9063350000 -1.4674287500 -2.4031788400
-2.7995150000 -0.9353440625 -3.2406292560
-2.7715112500 -1.5297384375 -2.4630559360
-6.1679495625 0.5572531250 -3.2441910560
-6.1168548125 0.0178987500 -2.3773396000
-5.0582109375 0.3775803125 -3.2663130720
-4.9756375000 -0.1775631250 -2.4415944720
-3.8727278125 0.2186146875 -3.2373135440
-3.8928303125 -0.3675559375 -2.4817715760
-2.7411290625 0.1299540625 -3.2765710560
-2.8148875000 -0.4246787500 -2.3965603680
-6.1418982813 1.6527856250 -3.2897432400
-6.0983513750 1.1181478125 -2.4362582480
-4.9502540625 1.5063975000 -3.2485299760
-5.0240528125 0.9432318750 -2.4646878880
-3.8570596875 1.3644437500 -3.1789647840
-3.9204443750 0.7632096875 -2.4317639040
-2.8247506250 1.2267631250 -3.2304360320
-2.7502934375 0.6591362500 -2.3862505760
-2.2955146875 -2.0754084375 -3.9934124480
-5.6376829688 2.1839565625 -4.8639681760
-5.0717156250 2.0566362500 -5.6785220464
-4.5091143750 1.9830390625 -4.8912839440
-3.9089956250 1.9234706250 -5.6232364344
-3.3089440625 1.8392578125 -4.8863751360
-2.7569450000 1.8395937500 -5.6780298704
-6.1945208750 2.2170531250 -2.4592091920
-5.0908506250 2.0454428125 -2.4063261760
-3.8688578125 1.9163621875 -2.3579634080
-2.6875671875 1.8178250000 -2.4826393600
-2.2737190625 -0.4309675000 -4.8486330080
-2.2415228125 0.7309596875 -4.8291272960
-2.2416034375 1.2891803125 -4.0244195360
-6.6735223313 1.2039059375 -4.8274564880
-6.1897398125 2.2079290625 -5.6979513416
-4.9993681250 -1.8322300000 -6.4575665841
-3.9228228125 -2.0414250000 -6.4528116458
-3.8763828125 1.3629656250 -6.4571143002
0.5906587500 -2.2286496875 -5.6633021512
-1.0917162500 -1.9031128125 -4.0303126960
-0.5396365625 -1.7964996875 -3.2269389920
0.0379878125 -1.8209693750 -4.0740127440
1.1546709375 -2.1493012500 -4.8573756080
1.6328578125 -1.4942634375 -6.4403724155
1.0657684375 -1.5856653125 -4.0078280240
1.7021281250 -2.1243612500 -5.7392539744
-2.1839700000 -1.5374381250 -4.8791867760
-2.2306518750 -1.0042246875 -4.0455572000
-1.6294312500 -1.4649562500 -5.7085357160
-1.1165621875 -1.3318846875 -4.8129891040
-0.6082753125 -0.7089759375 -6.4588442989
-1.1589978125 -0.7690415625 -3.9691015440
-0.5542296875 -1.3186756250 -5.7202676376
-0.0581709375 -1.2121296875 -4.8107613600
0.0368321875 -0.6526056250 -4.0477331360
0.4903881250 -1.0979781250 -5.6193327016
1.1144659375 -1.0783459375 -4.9185997120
1.1650446875 -0.5243312500 -4.1031936000
1.6950600000 -0.9418478125 -5.6299028288
-2.1714059375 0.1291612500 -4.0757742160
-1.6849012500 -0.3166009375 -5.5918822328
-1.0462975000 -0.2886106250 -4.9265004320
-1.1337084375 0.2493059375 -4.0918735520
-0.4769371875 -0.1405428125 -5.6799364048
0.0474746875 -0.0557253125 -4.8088574160
0.5252853125 0.5822468750 -6.4556074646
-0.0720115625 0.4885471875 -3.9916121200
0.5899868750 -0.0355825000 -5.7254898840
1.0815575000 0.1030253125 -4.7938071920
1.6270259375 0.1801968750 -5.6294028816
1.1319481250 0.6733934375 -4.0051210560
-1.6692600000 0.7512503125 -5.6552447120
-1.1234825000 0.8794306250 -4.7992340800
-1.1057315625 1.4422737500 -4.0429149920
-0.5826500000 0.9627565625 -5.5950593584
0.0535618750 1.0173934375 -4.8900664560
0.0274662500 1.5631171875 -4.0723548880
0.6106537500 1.1305506250 -5.6539896632
1.1892725000 1.2096034375 -4.8460814640
1.7176350000 1.2692121875 -5.7422653144
-1.6684671875 -2.0346525000 -3.2820886080
-0.5947437500 -1.2644956250 -2.3685710960
0.5239415625 -1.6401275000 -3.1586560480
1.6725521875 -1.5519103125 -3.2497086080
1.6358543750 -2.0976743750 -2.4211821200
-1.6721087500 -1.4733681250 -2.4608800000
-0.5230412500 -0.7306237500 -3.2673103760
-0.5236056250 -0.2057550000 -2.4341470720
0.6008040625 -0.5277712500 -3.2435564080
1.6377490625 -0.3715737500 -3.1688363200
-1.6756293750 0.3214250000 -3.1078324000
-1.7008650000 -0.8620693750 -3.1761023920
-0.6179771875 0.3973737500 -3.1956728640
-1.6342553125 -0.2784787500 -2.4339009840
0.5628968750 1.0582703125 -2.4610483760
0.5595375000 0.5110281250 -3.2848732880
1.7259931250 0.7414275000 -3.2513923680
1.6838128125 0.2054996875 -2.4094087520
-1.6565078125 1.2308481250 -3.2017344000
-0.5233771875 1.5174565625 -3.2435434560
-0.5439096875 0.9526112500 -2.3975447200
0.5401471875 1.6939715625 -3.1245016240
1.0426290625 1.7613203125 -4.0125555040
1.6478137500 1.2816553125 -2.4183326800
2.1785681250 -1.9557609375 -4.7888077200
2.2249275000 -1.3806225000 -4.0227098720
2.1912396875 -0.2862321875 -4.0360763360
1.6559971875 1.8338828125 -3.2560550880
-2.1791325000 1.8141028125 -4.9025003760
-1.6243518750 1.8785490625 -5.7121454384
-1.0985962500 2.0212821875 -4.8312643760
-0.5449846875 2.0206909375 -5.7051889192
-0.0335131250 2.1714462500 -4.8154629360
1.6448306250 1.8778906250 -6.4514867858
-1.6142334375 1.7955725000 -2.4998007600
0.5683793750 -1.0569400000 -2.3914054720
0.4951315625 0.0263106250 -2.3479644640
1.7118971875 -0.9797415625 -2.4652189200
-0.5565678125 2.0733928125 -2.3945787120
2.2387681250 0.2422915625 -4.9077459360
2.2124978125 1.3896793750 -4.7931725440
2.2217831250 1.9560162500 -3.9903816800
0.5850553125 -1.6488215625 -6.4554802759
-1.6886368750 -0.8520181250 -6.4459358176
1.7192340625 -0.3909371875 -6.4524467880
-0.5703815625 0.4304165625 -6.4642236401
0.5772615625 1.7048828125 -6.4580254734
6.6758171875 -1.0514037500 -4.8639422720
6.7175406250 0.6126156250 -4.0915238480
6.7108756250 1.7739112500 -4.0393272880
6.7155384375 -2.1434828125 -4.8353572080
6.7120178125 0.0504309375 -4.8950270720
2.7237006250 -1.9160800000 -5.6536723392
3.3058400000 -1.8591184375 -4.9012051760
3.9074503125 -1.2680431250 -6.4676242524
3.3744115625 -1.3019459375 -4.0977926160
3.9094390625 -1.7928043750 -5.5956344272
4.5322537500 -1.8302412500 -4.9075905120
4.4192981250 -1.2780540625 -4.0583408240
5.1049600000 -1.8951578125 -5.6826925904
5.6454296875 -1.9416246875 -4.8343210480
5.5576693750 -1.3728690625 -4.0111178320
6.1870953125 -2.0608690625 -5.7200824240
2.2980140625 -0.8430553125 -4.8742520640
2.7557893750 -0.2057146875 -6.4226798540
2.7685550000 -0.2587390625 -3.2398521360
2.8410503125 -0.8125118750 -5.7068532512
3.3663759375 -0.6843046875 -4.8201256560
3.3289793750 -0.1418328125 -3.9972073840
3.9227959375 -0.6753150000 -5.6691758832
4.4863646875 -0.7137596875 -4.8548758720
4.5288137500 -0.1559690625 -4.0552582480
5.0414946875 -0.7525940625 -5.6926785824
5.5867346875 -0.8420206250 -4.8540080880
6.2174909375 -0.3661853125 -6.4533709132
5.6449056250 -0.2899275000 -4.0387185440
6.1299725000 -0.9493325000 -5.7017242592
2.2915506250 0.7853278125 -4.0647909200
2.8207193750 0.3698671875 -5.6421878008
3.3963953125 0.3823640625 -4.8544743600
3.9364081250 1.0117765625 -6.4685264629
3.3606650000 0.9620040625 -4.0567088720
3.9386521875 0.4208625000 -5.6932666032
4.4686675000 0.4404006250 -4.8023037040
4.4932984375 1.0196509375 -4.0300795600
4.9886315625 0.3275793750 -5.6830397040
5.5651137500 0.2736278125 -4.8900016960
6.1617656250 0.7666362500 -6.4539009090
5.6329193750 0.8008346875 -4.0460623280
6.1463125000 0.2038334375 -5.6605679840
2.7615003125 1.4521368750 -5.6688857584
3.3223950000 1.5127803125 -4.8704441760
3.4302309375 2.0776793750 -4.0810327280
3.9113471875 1.5437537500 -5.6165350696
4.5150537500 1.5378278125 -4.8988997200
5.0121875000 2.0754218750 -6.4390621912
4.4836234375 2.1048096875 -4.0683656720
5.0858518750 1.4757062500 -5.6808262072
5.6341959375 1.3578728125 -4.8702110400
5.5633265625 1.9146556250 -4.0474352400
6.2194393750 1.3246956250 -5.6591691680
2.8301659375 -1.3520409375 -3.2606400960
2.7543650000 -1.8773665625 -2.3879602400
3.8763290625 -1.2287921875 -3.1847543280
3.9637534375 -1.8237509375 -2.4201459600
4.9702087500 -1.3547821875 -3.2528818480
5.0843871875 -1.9003446875 -2.4073623360
6.1383037500 -1.5130356250 -3.2666886800
6.2049268750 -2.0671712500 -2.4678093200
2.8274112500 0.3242603125 -2.4795179280
2.7848412500 -0.7907162500 -2.4011842320
3.9513640625 -0.1471943750 -3.2959602000
3.9209012500 -0.6648203125 -2.4007568160
5.0681546875 -0.2015893750 -3.2270037520
5.0536018750 -0.7841318750 -2.4736506720
6.1990009375 -0.3460828125 -3.2181057280
6.1472934375 -0.9337450000 -2.4812923520
2.8602659375 2.0068637500 -3.3016720320
2.8121596875 0.9435812500 -3.1816069920
3.9349837500 0.9688975000 -3.2513017040
3.8848753125 0.3990803125 -2.4448583760
5.0773325000 0.9165853125 -3.2405644960
4.9951218750 0.3744090625 -2.4363877680
6.1930884375 0.7709631250 -3.2128731200
6.1631900000 0.2165184375 -2.4109888960
3.9381415625 2.1183412500 -3.1839772080
3.9533931250 1.5218640625 -2.4482647520
5.0216071875 2.0486275000 -3.2044802240
5.0897218750 1.4667837500 -2.4169986240
6.1446865625 1.8809543750 -3.2564695520
6.2174506250 1.3228412500 -2.4112608880
2.7795334375 1.5205606250 -2.3881933760
4.9679109375 -1.3236206250 -6.4728976204
5.0611537500 0.9152281250 -6.4467164346
3.9544681250 2.0806759375 -6.4638914083
-5.6930575625 6.6396837500 -4.8384268320
-5.1335818750 6.5222534375 -5.6260042768
-4.5199718750 6.4965071875 -4.9035624400
-3.9421996875 6.3521078125 -5.6558288472
-3.3471871875 6.3419893750 -4.8920481120
-2.7986415625 6.3007362500 -5.7129121968
-5.1207356250 6.5149971875 -2.3929079040
-3.9235350000 6.3723178125 -2.3942937680
-2.7855131250 6.3118087500 -2.4592480480
-6.6437410688 2.9255184375 -4.0337190720
-5.0302743750 2.6448493750 -6.4255084413
-5.5360632188 2.7389790625 -4.0582501600
-4.4876009375 2.5403728125 -4.0882858480
-3.3899318750 2.3785046875 -4.0637159040
-6.1721783438 3.9230915625 -6.4112024392
-6.1895100313 3.3420540625 -5.6393176376
-5.5829735313 3.2770703125 -4.9280546720
-5.6467022188 3.8270940625 -4.0801519920
-4.9762556250 3.2095334375 -5.6366210312
-4.3995584375 3.1053928125 -4.8788241200
-4.5560918750 3.6418178125 -4.0216348560
-3.8388787500 3.0125531250 -5.7083207128
-3.3207825000 2.9691096875 -4.8190765440
-3.3524546875 3.5243740625 -4.0000827280
-2.7708259375 2.9512109375 -5.7016530232
-6.6928176406 4.5832087500 -4.9295312000
-6.0885688750 4.4985659375 -5.6430763080
-5.5160319375 4.3879618750 -4.8660534480
-5.6798068438 4.9247228125 -4.0089548480
-4.9816978125 4.3388209375 -5.7134587712
-4.4491159375 4.2056284375 -4.8124969280
-4.4428003125 4.7756875000 -4.0209095440
-3.9279828125 4.1436546875 -5.7053676568
-3.3875131250 4.0651528125 -4.8391262400
-3.3112418750 4.6552471875 -4.0720051840
-2.8289565625 4.0187800000 -5.6538251728
-6.6606289156 5.6760268750 -4.8602250480
-6.1108885625 5.6227068750 -5.7216923576
-5.6136983750 5.5005868750 -4.7881083120
-5.5575766563 6.0860721875 -4.0295226240
-5.0823581250 5.4501962500 -5.7066874656
-4.5635362500 5.3391621875 -4.8241666800
-4.4201446875 5.9353840625 -4.1009917600
-4.0039046875 5.2486471875 -5.6464179240
-3.4107331250 5.2107937500 -4.8998840720
-3.3493371875 5.7540181250 -4.0827942000
-2.8208940625 5.1372906250 -5.6227818192
-6.0896411875 2.7795737500 -3.2306173600
-5.0042056250 2.6249618750 -3.1689528880
-3.9423878125 2.4440662500 -3.2272886960
-2.8225065625 2.3913509375 -3.2626606080
-6.1623676250 3.9114546875 -3.1608837920
-6.1958552188 3.3224487500 -2.3972597760
-5.1076071875 3.7728737500 -3.2117592480
-4.9722781250 3.2067250000 -2.4123618080
-3.9473462500 3.5866971875 -3.3014388960
-3.8442403125 3.0463887500 -2.4724461360
-2.7215640625 3.4862115625 -3.3003768320
-2.8068250000 2.9319146875 -2.4338103200
-6.2302780625 5.0646609375 -3.2341403040
-6.0930690938 4.5063328125 -2.4276322160
-5.0486703125 4.8936150000 -3.3237033840
-4.9709746875 4.3611406250 -2.4613851280
-3.8595725000 4.7199621875 -3.2555111040
-3.9330487500 4.1461675000 -2.4803986640
-2.7734328125 4.5626225000 -3.1985093520
-2.8401096875 3.9836006250 -2.4136440560
-6.1472652188 6.1980334375 -3.3108550000
-6.1159692813 5.6439246875 -2.4755287120
-4.9694159375 5.9836784375 -3.2727761200
-5.0882303125 5.4358853125 -2.4561784240
-3.8962434375 5.8188809375 -3.2175228880
-4.0028028125 5.2644362500 -2.4118437280
-2.8250193750 5.6970565625 -3.1980301280
-2.7931321875 5.1366187500 -2.4122322880
-2.2496659375 2.8933625000 -4.8307851520
-2.2550543750 4.6605818750 -4.0780537680
-2.2798196875 5.7535343750 -4.0485232080
-2.2659521875 6.3240906250 -4.8614036800
-2.2608056250 4.0744246875 -4.8352147360
-6.7098824325 2.3483778125 -4.8035600480
-6.6744069219 4.0403068750 -4.0854234560
-6.0938108438 2.7876228125 -6.4587406829
-5.1031190625 3.7577565625 -6.4715195794
-6.2409057813 5.0478640625 -6.4755563292
-2.7722368750 4.5890809375 -6.4573745059
-3.8929378125 5.7905815625 -6.4627723814
-2.7934009375 5.6856615625 -6.4330437854
0.0318334375 6.6243112500 -4.8214597120
0.5414103125 2.2430412500 -5.6017400000
-2.1708684375 3.4834568750 -4.0932076080
-2.2138281250 5.2231025000 -4.9077200320
-1.6979490625 6.3776928125 -5.6425258480
-1.1177043750 6.4494759375 -4.8735785600
-0.5436409375 6.5483087500 -5.6363801240
-1.6792843750 6.3437496875 -2.4567483120
-0.5564334375 6.4914278125 -2.4158588480
1.1553831250 2.2822384375 -4.8912580400
-1.6699318750 2.4678371875 -6.4667437237
-2.2327884375 2.3234915625 -4.0178917280
-0.5644287500 3.7948843750 -6.4315974355
-1.1432893750 2.5512975000 -3.9875451920
0.0459965625 2.7359421875 -4.0144594480
1.7258184375 2.4299434375 -5.6374421880
1.0750403125 3.4688234375 -4.8023425600
-1.6896312500 3.0277106250 -5.6583531920
-1.0887331250 3.0636559375 -4.8988479120
-1.0917700000 3.6188934375 -4.0666301040
-0.5422703125 2.6127740625 -6.4503029730
-0.5267365625 3.1895921875 -5.7025156264
0.5518915625 3.8979096875 -6.4530078686
-0.0354078125 3.8544528125 -4.0090455120
0.0093256250 3.2837353125 -4.8456151920
0.5788606250 3.3023865625 -5.7018032664
1.1259281250 4.0363025000 -4.0313100000
1.6449784375 3.5211356250 -5.6052486968
-1.6986478125 4.6660240625 -6.4680538962
-1.7131468750 4.1029793750 -5.6516194472
-1.1240737500 4.1829056250 -4.8718688960
-1.1205531250 4.7347434375 -4.0603224800
-0.5768853125 4.3618796875 -5.6455747488
0.0323709375 4.3517612500 -4.9230163440
0.5413431250 5.0676843750 -6.4473800951
0.0143512500 4.8920831250 -4.0540925680
0.5912365625 4.4789606250 -5.6933494960
1.1385459375 4.5978556250 -4.8531921120
1.6471284375 5.1719996875 -6.4428545368
1.0783190625 5.1434181250 -4.0140061280
1.7006768750 4.5867696875 -5.6972312104
-1.7058503125 5.7942365625 -6.4490638551
-1.6382193750 5.2273218750 -5.6631001000
-1.1058793750 5.3315028125 -4.8054380880
-1.1836153125 5.9114921875 -4.0398583200
-0.5694946875 5.4578421875 -5.6842701440
-0.0268750000 5.4662271875 -4.8272363040
-0.0013706250 6.0458403125 -4.0553748160
0.5030865625 5.6371253125 -5.6604954528
1.1112275000 5.6622668750 -4.9208015520
1.6906390625 6.3305003125 -6.4482233998
1.1458425000 6.1844481250 -4.0368923120
1.6849146875 5.7519353125 -5.6775946832
-1.6802518750 2.4456653125 -3.1979265120
-0.5233637500 2.5871218750 -3.2774906480
1.1776490625 2.8508731250 -4.1091644720
0.5397306250 2.2806796875 -2.3728970640
1.6656721875 2.9953396875 -3.1413910320
-1.6481093750 3.5877184375 -3.2040528080
-1.6704559375 2.9922490625 -2.4266090080
-0.5759581250 3.7222546875 -3.1621530880
-0.5025221875 3.1151618750 -2.4269198560
0.5758775000 3.8495481250 -3.2536719200
0.5234712500 3.3415971875 -2.3624707040
1.7185353125 4.0540534375 -3.2795111600
1.6632265625 3.5670246875 -2.3512413200
-1.6903703125 4.6489853125 -3.2735143840
-1.6944015625 4.1298812500 -2.3690762240
-0.5646840625 4.8961815625 -3.2464706080
-0.5498087500 4.3350718750 -2.4507385840
0.5407384375 5.0322765625 -3.1761930560
0.5794653125 4.4231681250 -2.4716560640
1.6778868750 5.1295775000 -3.2395801440
1.6689778125 4.5985275000 -2.3921825920
-1.7200537500 5.7540584375 -3.2192455040
-1.6351018750 5.1955690625 -2.4278524000
-0.5766165625 5.9570587500 -3.2988873520
-0.5749368750 5.4502768750 -2.3860433440
0.5436946875 6.1931556250 -3.2580367440
0.5429018750 5.6395037500 -2.4497801360
1.6480556250 6.3461146875 -3.1641606480
1.6918081250 5.7232596875 -2.4926124000
2.2042740625 3.0429084375 -4.0334600320
2.2150509375 4.7569018750 -4.8070052800
2.2186521875 5.3348890625 -4.0239921200
0.6387918750 2.7973381250 -3.2445796160
1.7472646875 2.3794587500 -2.4449101840
2.2000950000 6.4238103125 -4.0187595120
2.2504184375 5.8673768750 -4.8716875680
6.6746346875 3.4660687500 -4.8756508800
6.6394015625 5.1229931250 -4.0586128160
6.6622587500 6.2084475000 -3.9939952880
2.3179956250 2.4735884375 -4.8617274800
2.7530884375 3.1689790625 -6.4270764104
2.8357962500 2.5547643750 -5.7306875216
3.3551018750 2.6779862500 -4.8281558960
3.9146931250 3.2210896875 -6.4654186434
3.3358593750 3.2221646875 -4.0089548480
3.9115890625 2.6569565625 -5.6683987632
4.4932178125 2.6644143750 -4.8936282560
4.4857734375 3.1955987500 -4.0423062480
5.0833793750 2.6266953125 -5.6524807552
5.6399606250 2.4717475000 -4.8418979680
5.6067834375 3.0321853125 -4.0539889520
6.1868803125 2.4085643750 -5.6822302040
2.2579165625 3.5708678125 -4.8888878240