ITEM: TIMESTEP
1
ITEM: NUMBER OF ATOMS
2298
ITEM: BOX BOUNDS pp pp pp
-6.71875 6.71875
-6.71875 6.71875
-6.476 6.476
ITEM: ATOMS x y z
-5.6374706562 -6.3876728437 -3.997544136 1
-3.88284625 -5.632156125 -5.6952042224 1
-4.461868125 -6.2156271563 -4.009408168 1
-3.3572115625 -4.9334840625 -4.000652616 1
-6.1320647187 -5.9515225 -5.5919405168 1
-4.962656875 -5.7738935312 -5.6878979992 1
-5.6011504375 -4.7357646875 -4.868825176 1
-4.422469375 -5.6588510625 -4.826510992 1
-4.5330196875 -5.099880625 -4.012710928 1
-3.9640221875 -3.944175 -3.185142888 1
-3.309575625 -6.1119971563 -4.082198408 1
-2.8227215625 -5.4359753438 -5.6366365736 1
-6.1720265 -4.850050625 -5.655419564 1
-4.399948125 -4.5694084375 -4.881013008 1
-5.5378154687 -4.178525 -4.0549474 1
-3.8352909375 -4.5040484375 -5.677722908 1
-3.364991875 -5.5003866562 -4.793224352 1
-4.47785875 -4.003703125 -4.09367388 1
-3.2992153125 -4.3844546875 -4.822431112 1
-3.9303209375 -5.080584375 -3.262492232 1
-2.76361 -4.343833125 -5.72183742 1
-3.8307490625 -4.5263546875 -2.430662984 1
-6.6961578 -3.7839596875 -4.831963784 1
-5.6519267187 -3.6213525 -4.838659968 1
-5.5490855 -3.061250625 -4.009770824 1
-6.1428160625 -5.4233763438 -6.4684231059 1
-4.9679109375 -2.9787309375 -3.235228272 1
-5.0776146875 -3.5536678125 -5.6485252144 1
-4.50150875 -3.42898125 -4.888499264 1
-4.4181425 -2.8920053125 -4.045958712 1
-3.8960015625 -3.380875 -5.6079103328 1
-3.2977775 -3.2961515625 -4.892540288 1
-3.8828328125 -2.8056559375 -3.165106144 1
-2.722733125 -3.20441375 -5.6698234832 1
-6.7172513156 -6.5515377813 -4.078558896 1
-6.2046070625 -6.5104432187 -3.198444592 1
-5.038229375 -6.3607494687 -3.252855944 1
-3.8668421875 -6.178159375 -3.254824648 1
-2.7437896875 -4.890846875 -3.275198144 1
-2.7887784375 -5.9652045625 -3.207536896 1
-6.1450198125 -5.369436875 -3.183459128 1
-6.1053912813 -5.9469604687 -2.41075576 1
-5.52129675 -5.8765130313 -4.88283924 1
-4.9709478125 -5.7991157188 -2.467925888 1
-5.6104075312 -5.31222 -4.081770992 1
-6.11095575 -4.27038375 -3.267154952 1
-6.1721313125 -4.785604375 -2.394254912 1
-5.0087071875 -4.0791278125 -3.185881152 1
-5.0779775 -5.20079625 -3.1981726 1
-2.78430375 -4.329428125 -2.439561008 1
-3.4175190625 -3.8145971875 -4.016570624 1
-6.1374464375 -3.1285590625 -3.272802024 1
-6.165098125 -3.70015 -2.453277176 1
-5.08953375 -3.5111246875 -2.389488576 1
-3.8783715625 -3.375285 -2.390654256 1
-2.8445440625 -2.64788625 -3.192758664 1
-2.8222646875 -3.7829921875 -3.262375664 1
-2.805938125 -5.4111509063 -2.39411244 1
-2.2577284375 -4.2273971875 -4.81892112 1
-6.7001172938 -2.680270625 -4.83226168 1
-6.1447255312 -2.575055 -5.6515508016 1
-5.5779264063 -2.52711 -4.84126332 1
-5.053924375 -2.4037 -5.7148511112 1
-4.51731125 -2.3235453125 -4.854396648 1
-3.956134375 -2.243175625 -5.6653317296 1
-6.135460375 -2.6006803125 -2.436646808 1
-5.04621125 -2.39639 -2.457823328 1
-3.3706490625 -2.7328246875 -4.083674936 1
-2.3032546875 -2.5347425 -4.04549244 1
-5.0533196875 -6.3452278125 -6.4587716382 1
-2.80988875 -6.511581375 -5.6202509984 1
-2.8021353125 -6.5356546563 -2.41282808 1
-3.91429 -5.6244712188 -2.41645464 1
-4.991789375 -4.6491734375 -2.390783776 1
-2.70851625 -3.22591375 -2.437618208 1
-5.0059390625 -4.6491465625 -5.6093855656 1
-6.1725868438 -3.70794375 -5.71957082 1
-2.2433771875 -3.65924625 -4.0122058 1
-6.6718355219 -5.4397338125 -4.066811432 1
-6.7101270756 -4.3353809375 -3.991586216 1
-3.951485 -6.7160707909 -5.619691472 1
-3.363110625 -6.6885463969 -4.850549904 1
-6.1692220938 -6.473257625 -6.4526998701 1
-6.1066033437 -4.3006584375 -6.4596312624 1
-5.081444375 -5.199586875 -6.43920013 1
-4.9890615625 -4.111364375 -6.4598193254 1
-3.943825625 -3.923938125 -6.4457104528 1
-4.972224375 -2.99102625 -6.4583671472 1
-3.8694625 -2.8300853125 -6.4356521886 1
-2.8229365625 -2.6424171875 -6.4625047931 1
-1.6229946875 -4.6808859375 -3.212393896 1
-1.1031246875 -6.270415875 -4.848477584 1
-2.177654375 -4.80401375 -4.0546236 1
-2.19885875 -6.4901109375 -4.880533784 1
-1.6527453125 -6.3885274688 -5.6960733016 1
-2.23798875 -5.370941875 -4.8514954 1
-1.1219640625 -5.223505625 -4.86554832 1
-1.092818125 -5.7494681875 -3.983361696 1
-0.037275625 -6.3140259375 -4.829787848 1
0.0059796875 -5.1631578125 -4.858010256 1
0.055765625 -5.72591225 -4.065231288 1
1.1140628125 -5.8592297188 -4.075515176 1
0.5347184375 -6.3215294375 -5.628505308 1
0.581225625 -5.7999810937 -3.175817448 1
1.1219103125 -6.427344375 -4.876907224 1
-1.687185625 -5.7975206875 -6.436571133 1
-1.690518125 -5.221033125 -5.6729656384 1
-0.5471884375 -4.0302690625 -5.6113205944 1
-1.080670625 -4.64271 -4.0769658 1
-0.558489375 -5.123530625 -5.6586990104 1
-0.0122146875 -4.589094375 -4.067355416 1
0.590685625 -5.2581475 -5.6015042736 1
1.1913553125 -5.2661965625 -4.84068048 1
1.6896984375 -4.811458125 -6.429690383 1
1.1030171875 -4.7422684375 -3.985408112 1
-1.693044375 -4.1216978125 -5.6460306592 1
-1.1286828125 -4.071051875 -4.853969232 1
-1.63615 -3.6096484375 -3.269136608 1
0.0635325 -4.0288178125 -4.864991384 1
1.158984375 -3.650780625 -4.010949456 1
0.0086671875 -3.487085 -4.017723352 1
0.58609 -4.12450625 -5.7236519952 1
1.1005715625 -3.1261 -4.870975208 1
1.125551875 -4.2065421875 -4.858269296 1
-2.1861603125 -3.1023828125 -4.821913032 1
-1.6460803125 -3.0452196875 -5.6873773288 1
-1.1122621875 -2.9055234375 -4.819724144 1
-0.539784375 -2.361156875 -6.4644185936 1
-1.13133 -2.3603775 -3.994254328 1
-0.5727465625 -2.9241075 -5.6880935744 1
0.6019059375 -2.3510115625 -6.4689387639 1
-0.0130478125 -2.9462390625 -4.881777176 1
0.5660546875 -2.927950625 -5.6899547768 1
1.12697625 -2.55285625 -4.08596744 1
1.67974125 -2.565621875 -3.257428 1
1.6999378125 -3.110001875 -5.619898704 1
-1.6806684375 -5.814852375 -3.245032936 1
-0.497859375 -5.6974959688 -3.245732344 1
-0.5541625 -6.2646955313 -2.443213472 1
0.6142415625 -5.221785625 -2.408800008 1
0.5374865625 -6.3977697813 -2.4068054 1
1.6539278125 -5.9471123125 -3.225229328 1
1.7156865625 -6.4997442812 -2.415263056 1
-1.69221125 -5.2573278125 -2.417205856 1
-0.548491875 -4.5987559375 -3.195090024 1
-0.5436275 -4.0327953125 -2.389605144 1
0.5199103125 -4.68103375 -3.219621112 1
1.70581 -4.8264946875 -3.2538662 1
1.7272965625 -5.3836026875 -2.425210192 1
-1.6562928125 -3.0373721875 -2.442565872 1
-1.725079375 -4.1344365625 -2.395692584 1
-1.083035625 -3.4997296875 -4.083299328 1
-0.5569440625 -3.5030621875 -3.216059312 1
0.5859153125 -3.545914375 -3.234528864 1
0.5845715625 -4.10134 -2.426220448 1
1.7239909375 -3.6692034375 -3.19117852 1
1.6723775 -4.2715125 -2.451852456 1
-1.72989 -2.4943628125 -3.2729704 1
0.04498875 -2.4044659375 -4.025209608 1
-0.5674790625 -2.9034675 -2.442319784 1
0.6068509375 -2.388354375 -3.205179632 1
0.54013375 -2.9720525 -2.453095848 1
1.7178096875 -6.5244289687 -5.604990952 1
2.2258815625 -6.0404774062 -4.006804816 1
1.7119240625 -5.4026691563 -5.7013875072 1
2.2201840625 -4.40809125 -4.858567192 1
2.2342128125 -3.84393125 -4.083908072 1
-0.5375403125 -2.371154375 -3.265756136 1
1.7052321875 -3.1005821875 -2.411895536 1
-2.233339375 -5.9485675938 -4.0536522 1
-0.5531546875 -6.2813996875 -5.7085331256 1
-1.660418125 -6.3314785625 -2.415781136 1
-0.5892478125 -5.17596375 -2.390434072 1
1.69532875 -4.2144971875 -5.689917216 1
0.5663234375 -3.5085178125 -6.4226491578 1
1.6602971875 -5.9891918437 -6.4510243994 1
-0.52562125 -5.6845690937 -6.4471670347 1
0.544165 -4.7225690625 -6.4473039374 1
2.25411375 -5.4983629687 -4.845718808 1
2.2950309375 -4.942124375 -4.004512312 1
6.1262503125 -6.0133363437 -5.6595279384 1
6.701738125 -5.9915487812 -4.882476584 1
6.1520771875 -4.886493125 -5.6809039192 1
6.7124478125 -3.2184290625 -4.013332624 1
3.40382625 -6.221610875 -3.987428624 1
4.491323125 -6.4162544063 -4.06751084 1
5.596261875 -6.5721119375 -4.058353776 1
3.39232375 -4.5118153125 -4.831860168 1
2.8093646875 -6.0940365938 -6.4406287356 1
2.82020875 -5.5259420938 -5.67660256 1
3.35577375 -5.108319375 -4.08920544 1
3.9487303125 -5.7270369688 -5.6183651872 1
4.517983125 -5.8174847813 -4.82675708 1
5.035756875 -4.8044571875 -5.677677576 1
4.4517228125 -5.252906875 -4.035882056 1
5.0416021875 -5.95024325 -5.6995703416 1
5.5828109375 -5.9666007187 -4.825423024 1
5.659633125 -5.4144000938 -4.01291816 1
2.79516125 -3.8664525 -3.253529448 1
3.360691875 -3.9455725 -4.053950096 1
3.357520625 -5.6997937812 -4.853282776 1
3.3697621875 -3.349135625 -4.822599488 1
3.940331875 -4.66265125 -5.6483969896 1
4.5048546875 -4.6774325 -4.815981016 1
4.51967625 -4.08913875 -4.045583104 1
5.5944478125 -4.8781753125 -4.861623864 1
5.6043378125 -4.303843125 -4.04251348 1
6.20463125 -5.4568800625 -6.4667012023 1
2.8138528125 -2.804325625 -6.4708815639 1
2.27109875 -3.239378125 -4.815152088 1
3.895585 -3.5276125 -5.6777721256 1
3.3804315625 -2.24766375 -4.898627728 1
4.493688125 -3.002663125 -4.06375476 1
4.5219740625 -2.4411234375 -4.893032464 1
5.07136625 -2.5503434375 -5.7046540016 1
5.6567171875 -3.7664103125 -4.875858112 1
6.7021546875 -4.85255 -4.853943328 1
5.5679490625 -3.21898 -4.044287904 1
6.1925240625 -3.74460125 -5.6985898752 1
2.8100365625 -6.1247654687 -3.254500848 1
2.86466 -6.6679835281 -2.39087444 1
3.9743421875 -6.2885309687 -3.202951888 1
5.048979375 -6.4530543437 -3.223739848 1
6.15518125 -6.5922184687 -3.24622452 1
2.794328125 -5.5750158438 -2.430624128 1
3.9066171875 -5.165133125 -3.215955696 1
3.9573975 -5.7251140625 -2.397376344 1
5.05018875 -5.3664 -3.308938104 1
5.0738253125 -5.8785286563 -2.41464136 1
6.215838125 -5.50725725 -3.220605464 1
6.1349309375 -6.0501550937 -2.384838808 1
2.8296821875 -4.40647875 -2.41541848 1
2.85342625 -4.988403125 -3.18431396 1
3.926679375 -4.095346875 -3.282412408 1
3.9633503125 -4.6206590625 -2.365838224 1
5.0410378125 -4.2684084375 -3.198677728 1
5.036375 -4.848276875 -2.41885076 1
6.1455734375 -4.342328125 -3.209129992 1
6.1478309375 -4.930191875 -2.4550516 1
3.424116875 -2.7825434375 -4.030908488 1
2.8125628125 -2.8080746875 -3.299055728 1
6.1336409375 -3.185520625 -3.249358904 1
3.8958940625 -3.571123125 -2.407893368 1
3.952210625 -2.9855303125 -3.187344728 1
5.0462515625 -3.7030928125 -2.416363976 1
5.029575625 -3.1236140625 -3.187966424 1
6.220406875 -3.7553646875 -2.458056464 1
2.2417109375 -2.658878125 -4.074012744 1
4.4647303125 -3.5579409375 -4.896542456 1
3.9438121875 -2.380614375 -5.6825488232 1
5.61660625 -2.6549678125 -4.843322688 1
6.1937065625 -2.62154875 -5.64878814 1
2.83429125 -3.3177859375 -2.388853928 1
3.9175284375 -2.395234375 -2.448031616 1
5.09297375 -2.534124375 -2.43568836 1
6.18388375 -2.6434653125 -2.408022888 1
2.3119084375 -6.5834894687 -4.84126332 1
2.7707721875 -2.2853021875 -2.420430904 1
5.05212375 -5.3718825 -6.4652087692 1
2.8209209375 -4.429671875 -5.607173364 1
2.804325625 -3.3644946875 -5.649358028 1
3.9304553125 -4.10279125 -6.4533869737 1
5.0610596875 -3.676903125 -5.6266169064 1
2.804271875 -2.246131875 -5.6740665584 1
2.835930625 -6.6925471437 -5.7084489376 1
5.0292934375 -4.2267925 -6.461240937 1
5.0263909375 -3.141768125 -6.4653076707 1
3.9265853125 -2.9473140625 -6.4517283406 1
-3.971130625 -2.2062628125 -2.40570448 1
-5.5992974062 -1.9558415625 -4.03888692 1
-4.4355171875 -1.794793125 -3.991702784 1
-3.39178625 -2.161905625 -4.88575344 1
-2.750575625 -1.5444525 -6.4419196614 1
-3.2861003125 -1.6172434375 -4.050725048 1
-6.1153484687 -1.5011434375 -5.6458506264 1
-6.1789696562 -0.9277384375 -6.4337648232 1
-5.5516319062 -1.3849359375 -4.842765752 1
-5.630586625 -0.83457625 -4.028900928 1
-5.0129803125 -1.2664978125 -5.6776244728 1
-4.4724971875 -1.236035 -4.814880096 1
-4.4779796875 -0.6558978125 -4.038161608 1
-3.9496709375 -1.1005984375 -5.7057458552 1
-3.4127353125 -1.05602625 -4.840719336 1
-3.319949375 -0.4981146875 -4.022295408 1
-2.85643625 -0.9666265625 -5.6616792656 1
-6.1349631875 -0.351766875 -5.6790880488 1
-5.5888725937 -0.2682528125 -4.830875816 1
-5.6319747187 0.315861875 -4.068404528 1
-5.016299375 -0.1788128125 -5.6348802824 1
-4.4577696875 -0.09116 -4.827443536 1
-4.506265625 0.4845428125 -4.048898816 1
-3.903835625 0.0021634375 -5.6531620304 1
-3.3485578125 0.062000625 -4.830953528 1
-3.3542821875 0.6207721875 -4.025274368 1
-2.8176690625 0.1823334375 -5.6950863592 1
-6.6881837188 1.82239375 -4.824995608 1
-6.0992731875 1.347700625 -3.204311848 1
-6.1757070312 0.78577125 -5.651255496 1
-5.6009784375 0.86306375 -4.872969816 1
-5.5612128437 1.43534 -4.060452 1
-5.0192825 0.9286925 -5.63269528 1
-4.439615625 1.0458540625 -4.840771144 1
-3.912166875 1.6730090625 -6.4604686092 1
-4.50505625 1.6262734375 -4.057719128 1
-3.8872 1.1021303125 -5.6596587536 1
-3.3374584375 1.188493125 -4.828855304 1
-2.781858125 1.289489375 -5.6709347648 1
-6.1634144063 -2.0109890625 -3.220760888 1
-5.0350178125 -1.831665625 -3.2506282 1
-3.8502871875 -1.674661875 -3.254889408 1
-2.7545128125 -1.522845 -3.191735456 1
-6.2048825313 -0.908616875 -3.235577976 1
-6.13140225 -1.4494090625 -2.413229592 1
-5.054461875 -0.7053746875 -3.257311432 1
-5.02374375 -1.26296375 -2.453095848 1
-3.905770625 -0.5592015625 -3.250835432 1
-3.948475 -1.1244634375 -2.433849176 1
-2.757079375 -0.4018484375 -3.23230112 1
-2.8417759375 -0.95293375 -2.405069832 1
-6.114981625 -0.3654596875 -2.401287848 1
-5.0751690625 0.376491875 -3.245874816 1
-5.0008596875 -0.1696753125 -2.39942276 1
-3.94283125 0.55690375 -3.252920704 1
-3.91595625 -0.0042059375 -2.441866464 1
-6.1842935937 1.9326753125 -2.43931492 1
-6.1566607188 0.2043440625 -3.192590288 1
-5.0314971875 1.4690546875 -3.175804496 1
-4.9842375 0.9001646875 -2.37617392 1
-2.7990446875 1.8487715625 -3.27154568 1
-3.8507575 1.1000475 -2.411118416 1
-2.7820328125 0.7333515625 -3.240486784 1
-2.792500625 1.303625625 -2.44132248 1
-2.7832421875 -2.09630375 -5.612574348 1
-2.277468125 -0.860080625 -4.894547848 1
-2.247045625 1.342056875 -4.831886072 1
-6.6823295375 -1.4787834375 -4.845951944 1
-6.6516159813 1.2472284375 -4.037371536 1
-6.1385550313 1.8923090625 -5.6898123048 1
-5.6031983125 2.0005346875 -4.863981128 1
-5.016944375 2.0341821875 -5.6640365296 1
-3.3880909375 1.7509196875 -4.020404416 1
-6.1828638437 0.770801875 -2.41464136 1
-5.038283125 2.0616484375 -2.426790336 1
-3.957908125 1.6536725 -3.233427944 1
-3.8462290625 2.195499375 -2.392545248 1
-2.7869778125 -2.08340375 -2.379904096 1
-2.82096125 0.1639375 -2.444521624 1
-2.26137 0.2272146875 -4.856171072 1
-6.6948497938 -2.0647659375 -4.101160136 1
-6.6891311969 -0.3648146875 -4.872309264 1
-4.464770625 2.1756253125 -4.872335168 1
-3.882228125 2.2232209375 -5.638769768 1
-3.849440625 -1.6882740625 -6.467026971 1
-2.75474125 -0.3998865625 -6.4568082445 1
-6.1350935312 0.2280478125 -6.4525523468 1
-5.0370871875 0.3791390625 -6.4558381397 1
-5.0132625 1.4792 -6.4704722289 1
-2.22616375 -1.4136115625 -4.078118528 1
-2.1868859375 -0.3215325 -4.031711512 1
-2.1938196875 -1.982541875 -4.87552136 1
1.6977340625 -1.50774125 -3.269434504 1
-1.6431509375 0.9119359375 -3.239852136 1
-1.7087125 -1.3449190625 -6.4455672037 1
-1.63013 -1.9326753125 -5.6813326304 1
-1.1621825 -1.2630309375 -4.034509144 1
-0.536828125 -1.7619921875 -5.7230406608 1
-0.57593125 -1.208810625 -3.240758776 1
-1.0863009375 -1.827043125 -4.855096056 1
-0.0281515625 -1.8551275 -4.8482574 1
-0.0229915625 -1.2868421875 -4.041101712 1
0.55808625 -1.8080021875 -5.6250548952 1
1.12375125 -1.95494125 -4.826070624 1
1.1367990625 -1.3782709375 -4.069492496 1
1.6895909375 -2.058383125 -5.6260392472 1
-1.6426 -0.2275909375 -6.4265122213 1
-1.677134375 -0.7938471875 -5.6329426632 1
-1.0967284375 -0.7300459375 -4.883214848 1
-0.561499375 -0.1103353125 -3.2337906 1
-0.5137828125 -0.654486875 -5.6500095136 1
0.0298984375 -0.7111125 -4.801138024 1
0.5613515625 -0.7372215625 -5.6442134936 1
-0.011583125 -0.09981375 -4.081770992 1
1.1352134375 -0.7772384375 -4.812082464 1
1.1414215625 -0.208630625 -4.020080616 1
1.653215625 -0.9563065625 -5.6540349952 1
-2.2049190625 0.7828015625 -4.028758456 1
-1.69844625 0.3563625 -5.6749978072 1
-1.11106625 -0.168640625 -4.069401832 1
-1.1387475 0.402721875 -4.870133328 1
-0.53002875 0.4258209375 -5.6129227568 1
0.049369375 0.4661603125 -4.848412824 1
0.01736125 1.03673 -4.0546236 1
0.61656625 0.3514175 -5.6520377968 1
1.179463125 0.3229434375 -4.854046944 1
1.707556875 0.193419375 -5.7169182504 1
1.13020125 0.86757875 -3.990239208 1
-2.2193778125 1.9169534375 -4.052240432 1
-1.6885159375 1.4787296875 -5.6557796296 1
-1.074113125 0.95250375 -4.060218864 1
-0.5573471875 2.1036271875 -6.4514952046 1
-1.120795 1.526956875 -4.849189944 1
-0.5575353125 1.5449496875 -5.6504926232 1
0.028621875 1.586673125 -4.878344896 1
0.58872375 2.078646875 -6.4420599316 1
0.00951375 2.1096471875 -3.992104296 1
0.58248875 1.4827609375 -5.7100627568 1
1.1166696875 1.4007653125 -4.8502002 1
1.6682253125 1.35401625 -5.6959165824 1
-1.6988090625 -1.36003625 -3.186671224 1
-0.5044303125 -0.6625225 -2.408825912 1
0.57227625 -1.283335 -3.281790712 1
0.5674925 -1.813229375 -2.427709928 1
1.6753875 -0.9670565625 -2.417970024 1
-1.664933125 -0.780799375 -2.408191264 1
-0.5627490625 0.4261971875 -2.373039536 1
-0.5435871875 0.9665728125 -3.222625976 1
0.5370028125 -0.21000125 -3.25755752 1
1.68732 -0.3937590625 -3.201177464 1
-1.690141875 1.4640021875 -2.417503752 1
-1.6445753125 -0.2139921875 -3.192823424 1
-0.566390625 2.097083125 -3.20827516 1
-1.71113125 0.35781375 -2.417400136 1
-0.558865625 1.5296309375 -2.418941424 1
0.5494325 0.8989015625 -3.20419528 1
1.715995625 0.780235 -3.214854776 1
1.7067775 0.195085625 -2.457110968 1
-1.6724984375 2.0185409375 -3.233997832 1
0.597243125 2.0738228125 -3.230591456 1
1.1570090625 1.952710625 -4.019627296 1
1.6672309375 1.357805625 -2.44002728 1
2.1998396875 1.2000359375 -4.834126768 1
1.73187875 1.9291278125 -3.222703688 1
-1.6104709375 -1.94623375 -2.43296844 1
-0.5343690625 -1.7855078125 -2.473288016 1
1.69549 -2.021456875 -2.379230592 1
0.5893284375 -0.75293 -2.404784888 1
0.5779603125 0.3353059375 -2.416752536 1
0.5681240625 1.499114375 -2.457473624 1
-1.1023453125 2.0749246875 -4.046347272 1
2.2388084375 -0.954788125 -4.883732928 1
1.6832215625 -1.5121084375 -6.4641792795 1
1.6717996875 -0.3962315625 -6.4570346454 1
-1.629619375 0.9278459375 -6.4660398084 1
-0.5381046875 0.981394375 -6.4524673817 1
0.547040625 0.8995734375 -6.4706939153 1
6.675535 -0.9177678125 -4.035804344 1
6.7039553125 0.1719865625 -3.998230592 1
2.25191 0.115804375 -4.851728536 1
2.279510625 -1.4972465625 -4.053095264 1
6.6724309375 0.7057509375 -4.87403188 1
2.785459375 -1.665631875 -6.4568911373 1
2.8019203125 -1.7140471875 -3.210813752 1
3.3626 -0.0889025 -4.841470552 1
4.4581190625 -1.9277034375 -4.00385176 1
5.6261065625 -2.088483125 -4.038485408 1
2.8313484375 -0.521025625 -3.169134216 1
2.2754121875 -2.0709875 -4.829321576 1
2.80526625 -1.0950353125 -5.6755353152 1
3.9353734375 -0.634384375 -3.282516024 1
3.391275625 -1.1469309375 -4.907914312 1
3.9367440625 -1.202495 -5.7384457696 1
4.4536846875 -1.373876875 -4.860095528 1
5.021620625 -1.3700471875 -5.675644112 1
5.566565 -1.5454871875 -4.868993552 1
6.126021875 -1.0199734375 -3.197291864 1
2.2629421875 -0.423200625 -3.997220336 1
2.2916446875 0.6548228125 -3.994047096 1
2.7907 0.0477703125 -5.6749239808 1
3.342040625 -0.6394234375 -4.022774632 1
3.3815334375 0.5066609375 -4.10584876 1
3.9177703125 -0.0439675 -5.7299816376 1
4.4544640625 -0.2615071875 -4.846560688 1
4.4764075 0.32448875 -4.099579992 1
6.1720721875 -1.519485625 -5.6023876 1
6.1628675 -0.4165221875 -5.654525876 1
5.612225625 -0.363538125 -4.818286472 1
2.7653434375 1.165703125 -5.6063392552 1
3.38598125 1.077929375 -4.889587232 1
3.9425490625 0.886310625 -5.7242516728 1
3.3236715625 1.626931875 -4.066630104 1
4.5029465625 0.9116940625 -4.85007068 1
4.4778721875 1.4587346875 -4.021764376 1
5.076660625 0.77803125 -5.673727216 1
5.032961875 1.3056009375 -3.268152256 1
5.072253125 -0.3062271875 -5.6048653176 1
5.596100625 0.7620540625 -4.826834792 1
6.218955625 1.2897446875 -3.24324556 1
6.1420259375 0.7129803125 -5.7089449992 1
3.3638228125 -1.6989703125 -4.044793032 1
5.052526875 -1.99536125 -3.274615304 1
6.2062840625 -2.0889534375 -3.255018928 1
2.8531440625 0.05831875 -2.429704536 1
2.8162446875 -1.1246784375 -2.461151992 1
3.9003284375 -1.7926028125 -3.18832908 1
3.961778125 -1.200049375 -2.46547796 1
4.5139115625 -0.8407440625 -4.038861016 1
5.0309865625 -1.459205 -2.46463608 1
5.609000625 -0.9714775 -4.099929696 1
6.158218125 -1.5746734375 -2.367262944 1
2.7871121875 1.733518125 -3.204091664 1
2.866836875 0.6131934375 -3.220501848 1
3.92289 0.4092928125 -3.242351872 1
4.0098709375 -0.125318125 -2.314729632 1
5.0249665625 0.17974 -3.249035104 1
5.0846425 -0.8491828125 -3.218235248 1
5.6004275 0.1857734375 -4.031335904 1
2.259300625 1.785978125 -4.092948568 1
3.8840825 1.5183434375 -3.267802552 1
3.94336875 0.9957725 -2.421220976 1
5.6405653125 1.299701875 -3.996702256 1
6.13997 0.1106175 -3.1848968 1
6.1095475 0.720545625 -2.467951792 1
3.4306071875 2.1900975 -4.861377776 1
3.9514715625 2.0586653125 -5.7541643168 1
4.4751309375 1.967276875 -4.893252648 1
5.065050625 1.9241290625 -5.6594696544 1
5.6284178125 1.83400375 -4.853658384 1
6.2041475 1.85260125 -5.642622988 1
3.9469028125 2.06738625 -2.443045096 1
5.0599175 1.8661059375 -2.45297928 1
6.1743834375 1.841475 -2.418863712 1
6.160851875 -0.4502503125 -2.407686136 1
2.805400625 1.182258125 -2.401184232 1
5.0353403125 0.7766203125 -2.450466592 1
2.808545 1.7056890625 -6.4679412526 1
4.9357146875 -0.3170309375 -2.297723656 1
3.9281978125 -1.7817990625 -6.4638614633 1
5.087948125 -1.9750303125 -6.4454340571 1
6.1680275 -2.04921875 -6.4683781884 1
2.8028475 -0.5356590625 -6.4601699361 1
3.942481875 -0.551609375 -6.461357505 1
6.1640903125 -0.985748125 -6.4621394172 1
2.9484696875 0.6023225 -6.4629066937 1
3.9086865625 1.391291875 -6.4563422315 1
6.1413540625 1.3076165625 -6.464285175 1
5.02847375 1.3695903125 -6.4584258198 1
-3.318095 2.302300625 -4.839618416 1
-5.5789315313 6.483244375 -4.8323912 1
-5.02524875 6.5019090625 -5.6947340648 1
-4.508845625 6.657286875 -4.807963728 1
-3.3183503125 6.1912071875 -4.041049904 1
-5.0323571875 6.520869375 -2.435183232 1
-3.9220703125 6.718078125 -2.3708636 1
-6.1186393125 6.362253125 -5.7001648384 1
-3.8926825 2.773311875 -3.173149336 1
-6.15436425 2.4768671875 -3.274667112 1
-5.5491244687 2.5274190625 -3.987053016 1
-4.4288253125 2.730580625 -4.038524264 1
-2.76705 2.4048153125 -5.656507532 1
-6.1415327812 3.035020625 -5.6507542536 1
-6.6951693375 3.559755 -4.082030032 1
-6.1433172812 2.4637253125 -6.4537733318 1
-5.56195325 3.0611834375 -4.849073376 1
-5.040755625 3.7779934375 -6.4274028008 1
-5.5887556875 3.624389375 -4.047551808 1
-5.0170921875 3.187885625 -5.7041657112 1
-4.48318 3.284474375 -4.869382112 1
-3.8647728125 3.9150290625 -3.2078866 1
-3.886420625 3.31943875 -5.6553897744 1
-3.3395815625 3.45865125 -4.85687048 1
-3.3296378125 4.015796875 -4.047202104 1
-2.75716 3.508719375 -5.6254188464 1
-6.1302425938 5.2045453125 -5.6958582984 1
-6.158013875 4.1175725 -5.6045298608 1
-3.9167221875 5.068705625 -6.4305975411 1
-5.5657076875 4.7767490625 -4.10649636 1
-5.565834 4.1912234375 -4.844475416 1
-4.43561125 3.8081875 -3.992790752 1
-3.9142496875 5.6416671875 -5.6462417768 1
-4.425264375 4.3503234375 -4.864110648 1
-5.0190003125 4.353561875 -5.641800536 1
-3.3465959375 4.582805625 -4.86373504 1
-2.7873271875 5.171475625 -6.4456017855 1
-3.3246525 5.103858125 -3.97969628 1
-2.767829375 4.5926553125 -5.677042928 1
-6.6912109188 5.22487625 -4.857090664 1
-6.1429235625 5.78828375 -6.4534979723 1
-5.618036 5.3898215625 -4.819413296 1
-5.5523078125 5.936069375 -4.00521172 1
-5.0418171875 5.42256875 -5.611104296 1
-4.4563990625 5.4768025 -4.837131632 1
-4.4187740625 6.0634703125 -4.089516288 1
-3.3222740625 5.6263215625 -4.870418272 1
-2.7742525 6.3521884375 -3.209583312 1
-2.7799365625 5.7640425 -5.7126311384 1
-6.135750625 3.0169740625 -2.440765544 1
-4.977491875 2.6353625 -3.20212296 1
-3.3721809375 2.8912528125 -4.07094312 1
-2.8320203125 2.9333121875 -3.233946024 1
-6.1726943437 3.6020696875 -3.231174296 1
-5.0343325 3.7935809375 -3.254539704 1
-5.06695875 3.2266125 -2.462486048 1
-3.9350375 3.3633121875 -2.408657536 1
-2.7306478125 3.47483 -2.38634124 1
-2.7838065625 4.03829125 -3.183005808 1
-6.0982855313 4.6916090625 -3.23191256 1
-6.1391328437 4.1403625 -2.40084748 1
-4.464501875 4.9053459375 -4.05358744 1
-5.03922375 4.8954559375 -3.238155424 1
-3.922648125 5.0757334375 -3.242572056 1
-3.935279375 4.5157121875 -2.453225368 1
-2.7392746875 5.1939296875 -3.22588988 1
-2.809861875 4.6321615625 -2.426194544 1
-6.11959875 6.34717625 -2.448342464 1
-6.146747875 5.79989375 -3.275314712 1
-4.9728828125 5.9687359375 -3.238828928 1
-5.0318196875 5.4266671875 -2.381328816 1
-3.8989309375 6.1948084375 -3.227521832 1
-3.885130625 5.623351875 -2.409875024 1
-2.8140275 5.75958125 -2.45323832 1
-2.265213125 3.0665046875 -4.031737416 1
-2.73625125 2.383705 -2.397661288 1
-5.001975 4.33053 -2.405328872 1
-6.1439125625 5.26325375 -2.428033728 1
-3.884593125 4.471059375 -5.7050412664 1
-2.7813340625 6.370691875 -6.4273495681 1
-2.2595021875 4.18986625 -4.055374816 1
-2.250109375 5.8606715625 -4.860250952 1
-6.6610798781 6.3004675 -4.839670224 1
-6.6788923594 4.6631753125 -4.025455696 1
-6.6867194344 2.961598125 -4.825099224 1
-5.0147003125 2.5988796875 -6.4588047953 1
-3.90784 3.8826984375 -6.4581091434 1
-2.172118125 3.62076125 -4.846470024 1
-2.1809196875 5.3169903125 -4.037760096 1
-1.6699721875 6.4863215625 -3.169302592 1
-2.208695 6.4038825 -4.018060104 1
1.0766796875 2.490210625 -4.8557048 1
-2.2201034375 2.498595625 -4.82066964 1
-1.6877634375 3.1234125 -6.4698338766 1
-1.6705365625 2.5629075 -5.6570022984 1
-1.113565625 2.665166875 -4.843542872 1
-1.088464375 3.195088125 -4.00113184 1
-0.5758909375 2.6970540625 -5.6943468 1
-0.0338221875 2.64401625 -4.8485812 1
0.0610734375 3.2092915625 -4.03687936 1
0.53389875 2.6553440625 -5.6762360184 1
1.6869840625 2.4459071875 -5.587732412 1
1.174894375 3.666475625 -4.862219656 1
-1.6546534375 4.2852859375 -6.463648377 1
-1.637198125 3.7056996875 -5.6984823736 1
-1.1068334375 3.754034375 -4.834567136 1
-1.112221875 4.3253296875 -4.025144848 1
-0.5474303125 3.8366884375 -5.6785919872 1
0.0247921875 4.3538575 -4.089619904 1
-0.01682375 3.7677675 -4.845459768 1
0.575850625 3.7307875 -5.6000989816 1
1.0961371875 4.2256503125 -4.052797368 1
1.7372671875 3.531375 -5.6471069704 1
-2.2324525 4.7474821875 -4.852699936 1
-1.6586040625 4.8339659375 -5.6491767 1
-1.1057315625 4.8694140625 -4.837999416 1
-1.0779025 6.059855625 -4.869977904 1
-0.5362503125 4.927585 -5.6250225152 1
0.0499203125 4.93898 -4.86308744 1
0.5311440625 5.3718825 -6.4527389851 1
-0.031094375 5.4703390625 -4.035247408 1
0.614765625 4.8098053125 -5.6546333776 1
1.1781328125 4.800385625 -4.842610328 1
1.73886625 5.2892284375 -6.466587147 1
1.16707375 5.337133125 -3.993438352 1
1.706455 4.68909625 -5.7336859096 1
-1.6737346875 6.4603871875 -6.466381534 1
-1.6587921875 5.91405875 -5.6299377992 1
-1.1269359375 6.5759765625 -4.035635968 1
-0.5110684375 6.016748125 -5.6436423104 1
0.0608853125 6.0485009375 -4.836846688 1
0.6169425 6.5791075 -6.4537401747 1
0.011636875 6.588809375 -3.99012264 1
0.5862378125 5.970576875 -5.7373293072 1
1.0883165625 5.87621875 -4.833841824 1
1.180645625 6.4670521875 -4.062485464 1
1.6657259375 5.83676625 -5.6477688176 1
-1.6806684375 3.1318378125 -3.27517224 1
-1.6703484375 2.6001025 -2.431336488 1
-0.49842375 3.266306875 -3.241380472 1
-0.565665 2.69765875 -2.464389992 1
1.1498065625 3.079149375 -4.105369536 1
0.534570625 2.63036375 -2.42953616 1
1.686003125 3.021475625 -3.21157792 1
-1.6904509375 4.2637859375 -3.252933656 1
-1.631661875 3.6880159375 -2.444858376 1
-0.5374328125 4.3795096875 -3.25490236 1
-0.584396875 3.8293784375 -2.42934188 1
0.5365190625 4.2988578125 -3.207290808 1
0.5866409375 3.7523009375 -2.402751424 1
1.6631459375 4.10784375 -3.279692488 1
1.7507046875 3.579830625 -2.396793504 1
-1.11063625 5.4772996875 -4.092288016 1
-1.6375878125 5.377284375 -3.191515272 1
-0.5858615625 5.4563909375 -3.21947864 1
-0.4978996875 4.9149134375 -2.384048736 1
0.562359375 5.4214265625 -3.28469196 1
0.6241315625 4.8850821875 -2.44125772 1
1.7535534375 5.2195953125 -3.250511632 1
1.6861778125 4.64787 -2.450596112 1
-1.6731971875 5.92534625 -2.373764848 1
-0.5765896875 6.59206125 -3.220229856 1
-0.4777165625 6.021854375 -2.438460088 1
0.6109090625 6.523341875 -3.261067512 1
0.5765896875 5.9523959375 -2.407297576 1
1.7088871875 6.36158125 -3.176167152 1
1.6571796875 5.7659103125 -2.436543192 1
2.2343875 5.72287 -4.870690264 1
0.6265771875 3.19280375 -3.222613024 1
1.6921440625 2.483653125 -2.382183648 1
-1.630049375 4.7842875 -2.405613816 1
-0.5624265625 6.5637484375 -6.4682780694 1
2.2141775 2.92185 -4.07463444 1
2.2180475 4.5927359375 -4.841185608 1
2.236994375 6.2746003125 -4.063573432 1
1.6719475 2.9653875 -6.4672276104 1
-0.528685 3.2651646875 -6.4741331894 1
1.662621875 4.085456875 -6.4502037606 1
3.36265375 6.652180625 -4.818752744 1
2.2884196875 2.3665721875 -4.872503544 1
6.6864865625 5.7568265625 -4.002893312 1
2.307568125 3.5133553125 -4.845938992 1
2.271233125 4.0493234375 -3.999499888 1
3.9195978125 6.6058884375 -5.6775532368 1
4.464286875 6.4740665625 -4.8744852 1
5.065856875 6.3927025 -5.6145598896 1
5.647163125 6.32277375 -4.86438264 1
6.211538125 6.3275171875 -5.6551061256 1
3.8547215625 6.57797875 -2.428733136 1
5.0382159375 6.4337809375 -2.428124392 1
6.1950771875 6.3129375 -2.375694696 1
6.711896875 2.3911225 -4.048510256 1
6.6895503125 4.128 -4.859318408 1
2.856839375 2.2417915625 -5.6568365128 1
3.3736321875 2.729989375 -4.001339072 1
4.51139875 2.540305625 -4.052201576 1
5.5704484375 2.412326875 -4.090863296 1
2.8423 3.395575625 -5.7243876688 1
3.35254875 3.2641703125 -4.853386392 1
4.4714759375 3.0943740625 -4.876337336 1
3.40672875 3.8407196875 -4.063223728 1
5.05336 3.024378125 -5.639896592 1
5.0313225 3.5735553125 -3.262686512 1
6.1826475 2.934185625 -5.6326680808 1
5.6222634375 3.01016125 -4.84158712 1
6.2058271875 3.47821625 -6.473712612 1