ITEM: TIMESTEP
166000
# source: voids-relax.166000.cfg
ITEM: NUMBER OF ATOMS
2298
ITEM: BOX BOUNDS pp pp pp
-6.7187500000 6.7187500000
-6.7187500000 6.7187500000
-6.4760000000 6.4760000000
ITEM: ATOMS x y z
-6.7074844569 -6.0069763750 -4.8903514000
-5.5558150000 -6.6204202875 -4.0700235280
-4.4805328125 -5.9110272500 -4.8437242000
-4.4279653125 -6.4744145938 -4.0550769200
-3.3444325000 -6.2522322500 -4.0426041440
-6.7116592194 -5.4321658125 -4.0924693440
-6.1015992188 -5.9819880000 -5.6472416712
-5.5699257188 -6.0197500625 -4.8027829280
-5.5230933438 -4.8710265625 -4.8742779680
-5.0403525000 -5.9871117188 -5.6853244368
-4.4436737500 -5.3558381250 -4.0165835760
-3.8894171875 -5.2043034375 -3.2375078240
-3.3687006250 -5.7368544063 -4.9215268640
-2.7833631250 -5.6417733438 -5.6755832376
-6.0848762500 -4.3406215625 -6.4496172941
-6.6836840375 -4.2701821875 -4.0774061680
-6.6717991063 -4.8402950000 -4.8375460960
-4.4174975000 -4.8014875000 -4.8281170400
-5.0478506250 -4.2643368750 -6.4161757482
-5.5805453750 -4.3157487500 -4.0388610160
-3.8825237500 -4.6850246875 -5.7037318192
-3.9575453125 -5.7951583750 -5.6939154984
-4.5137503125 -4.2289962500 -4.0440159120
-3.3447550000 -4.6437984375 -4.8201386080
-3.2972668750 -5.2074343750 -4.0202360400
-2.8225065625 -4.5112509375 -5.7075060320
-3.9259537500 -4.1019715625 -3.2770373280
-6.7052517625 -3.6706278125 -4.8360695680
-6.1758535000 -3.7634943750 -5.6910064792
-6.6750285406 -3.1513087500 -3.9638430320
-5.6063883750 -3.7868890625 -4.9117481040
-6.1228533125 -4.9163646875 -5.6466769640
-5.5383260938 -3.2457206250 -4.0767456160
-4.9845331250 -3.6985778125 -5.5966900152
-4.3915631250 -3.6897359375 -4.8777102480
-3.9089956250 -2.9992768750 -6.4131092326
-4.4562378125 -3.1052181250 -4.1020020160
-3.8082143750 -3.5906478125 -5.6581511408
-3.2794621875 -3.4870850000 -4.8139346000
-3.3887896875 -2.9131290625 -4.0551934880
-2.7442465625 -3.4366406250 -5.7222376368
-6.6840150031 -6.5071443125 -3.9760567680
-6.0996507813 -6.5199220313 -3.2344641040
-4.9930256250 -6.5012788438 -3.2430642320
-3.8820668750 -6.3999506875 -3.2067079680
-2.7391134375 -5.0973140625 -3.2177042160
-2.7648596875 -6.2489024375 -3.2373524000
-6.1650175000 -5.4146755625 -3.2295682480
-6.1424613125 -5.9784082500 -2.4090590480
-5.6140477500 -5.4308543125 -4.0641174160
-5.0319675000 -5.9628288125 -2.4018577360
-5.0558459375 -5.4274586563 -3.2776201680
-2.8006168750 -4.5104581250 -2.4852168080
-6.1623770313 -4.3548921875 -3.2289595040
-6.0921190625 -4.8866275000 -2.3571862880
-5.0477296875 -4.2998925000 -3.1939113920
-4.9906740625 -4.8837787500 -2.4343931600
-3.9053003125 -4.6468084375 -2.4319711360
-3.3444459375 -4.0795175000 -4.0414255120
-6.0838590313 -3.2074640625 -3.2302676560
-6.1426265938 -3.7835296875 -2.4448195200
-4.9938856250 -3.1739509375 -3.2164996800
-5.0047565625 -3.7378287500 -2.4061707520
-3.9301865625 -3.0274015625 -3.2096480720
-3.8638725000 -3.5692956250 -2.3892683920
-2.8208000000 -2.8306228125 -3.2625828960
-2.7917212500 -3.9250937500 -3.2480378000
-2.2427590625 -5.5248926250 -4.8703794160
-2.8086793750 -5.6789455000 -2.4442884880
-6.1199763438 -2.6179743750 -5.6698286640
-5.6132079063 -2.6411003125 -4.7917348720
-5.0645668750 -2.6275015625 -5.6647113288
-4.5039275000 -2.5221381250 -4.8560674560
-3.3041065625 -2.3835975000 -4.9156466560
-6.1746669688 -2.6312103125 -2.4564763200
-5.0570015625 -2.6242093750 -2.3786995600
-3.8844050000 -2.4590087500 -2.4023887680
-2.7385759375 -2.2858934375 -2.4082042160
-3.9200546875 -5.8009835313 -2.4913301520
-2.7530346875 -3.3681900000 -2.4292641680
-4.9684215625 -4.8669550000 -5.6799143864
-6.0777328750 -3.1727281250 -6.4645709609
-2.2595962500 -4.4265812500 -4.8943665200
-6.7133407613 -2.6362225000 -4.8781635680
-3.9280768750 -2.4562809375 -5.6103634416
-2.7214162500 -2.3006612500 -5.6544352120
-3.8891215625 -6.3830866250 -6.4383087734
-1.6164371875 -4.9527265625 -3.2397226160
-1.0847825000 -6.5096611563 -4.9123827520
-2.1876653125 -4.9612862500 -4.0452334000
-1.6783840625 -6.5890603875 -5.6865535816
-1.0808721875 -5.4038073125 -4.8429859360
-1.1354015625 -5.9896890313 -4.0549603520
-0.5791831250 -5.8111610938 -6.4298449004
-0.0194306250 -6.3002242813 -4.8510550320
0.0826406250 -5.2308693750 -4.8793681040
-0.0133703125 -5.7611010313 -3.9985414400
1.1184031250 -6.2632496563 -4.8471823840
0.5670087500 -6.3268775625 -5.6678690264
1.1330634375 -5.7051822188 -4.0681972960
1.6645031250 -6.3133728750 -5.6804065624
-1.6416593750 -5.4864116563 -5.6290622440
-0.5516496875 -4.2076843750 -5.6316306256
-1.0851587500 -4.8222753125 -4.1076102320
-0.5204478125 -5.2623803125 -5.6457703240
-0.0054287500 -4.6880078125 -4.0488988160
0.6162571875 -5.2267575000 -5.7176072968
1.1535556250 -5.1206550000 -4.8434392560
1.7309381250 -4.5936228125 -6.4430422113
1.1335068750 -4.5858425000 -3.9766266560
-2.1907559375 -3.8948728125 -4.0070250000
-1.6739362500 -4.3915362500 -5.6830798552
-1.1467562500 -4.2209875000 -4.8455115760
-0.5287521875 -3.6364428125 -6.4662483356
-1.0794075000 -3.6668653125 -4.0383429360
0.0119325000 -4.1246003125 -4.8368466880
1.1327409375 -3.5275184375 -4.0562555520
0.0420459375 -3.5278006250 -4.0966269360
0.5975118750 -4.6118037500 -6.4186273027
0.5591612500 -4.0183768750 -5.6795879960
1.2003046875 -2.9585881250 -4.8257338720
1.1226225000 -4.0931565625 -4.9005446240
-2.2221593750 -3.3350262500 -4.8403048720
-2.2287437500 -2.7802456250 -4.0355194000
-1.6738421875 -3.2474137500 -5.6989421696
-1.1234018750 -3.1278200000 -4.8828133360
-1.0651368750 -2.6005459375 -3.9995387440
-0.5300153125 -3.0991981250 -5.6576654408
0.0123625000 -2.9545165625 -4.8634112400
0.6329465625 -2.9219440625 -5.6013682776
1.1764934375 -2.3451662500 -4.1176221280
1.6997228125 -2.4313678125 -3.2338683120
1.7278340625 -2.9455806250 -5.6751661832
-1.7100025000 -6.0133685938 -3.2338035520
-0.5886431250 -5.8590644375 -3.2364457600
-0.5446756250 -6.4542905938 -2.4878201600
0.5892746875 -5.7663994375 -3.2513276080
0.5103159375 -6.3059688125 -2.4138383360
1.6921709375 -5.7730953438 -3.2619482480
1.6963231250 -6.2900520938 -2.3996688480
-1.6625143750 -5.4826290000 -2.3550362560
-0.5748159375 -4.7242756250 -3.2081974480
-0.4867734375 -5.3011071875 -2.4321136080
0.5419746875 -4.6009328125 -3.2296459600
0.6146446875 -5.1810968750 -2.4674337120
1.7484875000 -4.6517400000 -3.2579331280
1.6890534375 -5.1952465625 -2.4433818480
-1.6251850000 -3.8249709375 -3.2211494480
-1.7074896875 -4.3959571875 -2.4315048640
-0.4890846875 -3.6712996875 -3.2560939440
-0.5544850000 -4.1818843750 -2.3533654480
0.5710937500 -3.4571865625 -3.2234419520
0.6155987500 -4.0401993750 -2.4352738960
1.6788006250 -3.4951340625 -3.2183129600
1.6910287500 -4.0855106250 -2.4567483120
-1.6520196875 -3.2242475000 -2.4999561840
0.0613959375 -2.3901953125 -4.0529916480
-0.5766031250 -3.1088059375 -2.4552847360
0.6501465625 -2.4049900000 -3.2620259600
0.5305259375 -2.9247256250 -2.3770935120
1.6974115625 -5.1934325000 -5.7108787328
2.2391443750 -3.5600775000 -4.0614881600
-1.6845921875 -2.6354565625 -3.2520399680
-0.4965559375 -2.5257125000 -3.2342698240
1.7158075000 -2.9600931250 -2.3778447280
-2.2309743750 -6.0989251563 -4.1045665120
-0.5226918750 -6.4465452188 -5.7343671848
-1.6121775000 -6.5884954750 -2.4664234560
1.7367700000 -4.0354290625 -5.6413795960
2.2233284375 -5.3018865625 -4.8817253680
-2.2073915625 -6.6817854531 -4.8484646320
-0.5032612500 -2.5170856250 -6.4360276671
0.5820587500 -3.4551440625 -6.4745709670
2.2806125000 -5.8364128438 -4.0130088240
6.1655146875 -5.8738537500 -5.6788963592
6.2136746875 -4.7443646875 -5.6245135016
2.2606040625 -6.3632542188 -4.8743815840
2.7750050000 -6.4722095000 -5.7434245184
3.3167646875 -6.6084501625 -4.9024615200
3.4038262500 -6.0528681250 -4.0587552880
3.9207803125 -6.6082988563 -5.6585202728
4.4709115625 -6.1988343125 -4.1150187760
5.5925665625 -6.2946840000 -4.0430704160
3.4176265625 -4.2951221875 -4.8048552480
2.8350303125 -5.2886103125 -5.6320049384
3.3482621875 -4.9017043750 -4.1055508640
3.9741809375 -5.5306049063 -5.6163641032
4.5438100000 -5.5843723750 -4.8107225040
5.0462918750 -4.5534446875 -5.6815502240
4.4876815625 -5.0162859375 -4.0176197360
5.0401375000 -5.7425102500 -5.6988476200
5.6192803125 -5.7521435938 -4.8677372080
5.6569187500 -5.2117209375 -4.0009375600
2.2755062500 -4.1347993750 -4.8416000720
2.7795065625 -3.7147431250 -3.2765710560
3.3973225000 -3.7218784375 -4.0001345360
3.3819365625 -5.4939500938 -4.8629967760
3.3678406250 -3.2255643750 -4.8543966480
3.9230512500 -4.4515078125 -5.7104422504
4.4767300000 -4.4802775000 -4.8661829680
4.5531087500 -3.9253893750 -4.0259219680
5.5971084375 -4.6872418750 -4.8918020240
5.6208793750 -4.1416121875 -4.0854105040
6.1747865625 -5.2904243750 -6.4724043305
2.8443290625 -2.4600971875 -6.3130068512
2.3132656250 -2.9891987500 -4.8318860720
3.9494693750 -3.2810612500 -5.6523784344
4.4655768750 -2.8207462500 -4.1279707760
5.0055896875 -2.3904371875 -5.7077547104
5.6690259375 -3.5281365625 -4.8148541920
6.1923359375 -3.6867528125 -5.7168768040
5.5836575000 -2.9548525000 -4.0431740320
2.8466671875 -5.8956117500 -3.2413804720
2.8276531250 -6.4825012813 -2.4819270000
3.9617109375 -6.0497076250 -3.2110339360
3.8827521875 -6.6410924031 -2.4568260240
5.0047162500 -6.2764694688 -3.2481284640
6.1383843750 -6.4556450938 -3.2551614000
2.2759631250 -4.7254043750 -4.0869388400
2.7763353125 -5.3460018750 -2.4294066400
3.8928571875 -4.9901500000 -3.2608473280
3.9523315625 -5.5104930000 -2.3664858240
5.0499065625 -5.1781943750 -3.2567285920
5.1097840625 -5.7193023438 -2.4199516800
6.2142793750 -5.2743531250 -3.1936523520
6.1819353125 -5.8806410313 -2.4810592160
2.8394243750 -4.2264028125 -2.3736612320
2.8442887500 -4.7709843750 -3.2129378800
3.9623559375 -3.8855471875 -3.2615726400
3.9761965625 -4.4363368750 -2.4275286000
5.1107246875 -3.9935040625 -3.1947791760
5.0382159375 -4.5981378125 -2.4887527040
6.1830640625 -4.1823681250 -3.2399428000
6.1682693750 -4.7044150000 -2.3913666160
3.4246006250 -2.6270312500 -4.0619544320
2.8494621875 -2.5869740625 -3.2423389200
6.1352265625 -3.1063065625 -3.2617410160
3.8949803125 -3.3214275000 -2.4680813120
3.9604478125 -2.7165250000 -3.2006334800
5.0516265625 -3.4219668750 -2.3975317680
4.9929584375 -2.8938865625 -3.2557960480
6.2246262500 -3.6128465625 -2.3881933760
2.2801153125 -2.4217734375 -4.0127756880
4.5080528125 -3.4034634375 -4.8959466640
5.6058428125 -2.4094243750 -4.8823729680
6.1702581250 -2.4912990625 -5.6851573560
2.8279487500 -3.1492125000 -2.4558416720
5.1155621875 -2.3456634375 -2.4150299200
6.1812365625 -2.5140621875 -2.4993733440
6.1955743750 -6.4382368125 -6.4425056099
5.0884184375 -5.1425850000 -6.4275349112
2.8556703125 -4.2321943750 -5.6328636560
2.8125762500 -3.0991175000 -5.7382514896
3.9691150000 -3.8181850000 -6.4208779718
5.1322784375 -3.4605325000 -5.6315503232
6.2097240625 -3.0655103125 -6.4304020954
2.8623487500 -5.8657267500 -6.4313881312
-5.5762440313 -2.0694287500 -4.0126461680
-4.3980668750 -1.9601684375 -4.0386149280
-3.3012175000 -1.8216009375 -4.0968859760
-6.6636793625 -1.5112887500 -4.8098806240
-6.1243180000 -1.5500290625 -5.6487609408
-5.5438099375 -1.5193378125 -4.8348520800
-5.0614359375 -0.9180096875 -6.4455643542
-5.6046415000 -0.9424256250 -4.0228652960
-5.0281512500 -1.5418321875 -5.7288807176
-4.4963890625 -1.4023375000 -4.8366783120
-4.4860556250 -0.8536575000 -3.9851490720
-3.9546831250 -1.3543925000 -5.7157344376
-3.4197228125 -1.2456025000 -4.8589687040
-3.2899300000 -0.6952159375 -4.0422155840
-2.8463043750 -1.1644803125 -5.6072588472
-6.7103850891 -0.2863531250 -4.8171207920
-6.1494797188 0.1125928125 -6.4455555469
-6.6708692313 0.2788953125 -4.0255334080
-6.1747879063 -0.4413546875 -5.6278305088
-5.5664427188 -0.4287100000 -4.8995732240
-5.5831939063 0.1326281250 -4.0915886080
-4.9848421875 -0.3567521875 -5.6450398312
-4.3987521875 -0.3368109375 -4.8793422000
-3.9623693750 0.3826328125 -6.4733587764
-4.5124871875 0.2049487500 -4.0562296480
-3.8616956250 -0.2003934375 -5.7231559336
-3.3537850000 -0.1092334375 -4.8117198080
-3.3860753125 0.4429134375 -3.9781161360
-2.8231515625 -0.1014262500 -5.7366065856
-6.1892600938 1.2504400000 -6.4690729466
-6.1261616250 0.6934018750 -5.6696369744
-5.5814040313 0.7341040625 -4.8467161120
-5.6132468750 1.2707843750 -4.0211167760
-5.0210696875 0.7390490625 -5.6508630504
-4.4482559375 0.7837690625 -4.8371963920
-4.4547731250 1.3707862500 -4.0944250960
-3.8990653125 0.9270934375 -5.6326227488
-3.2880890625 0.9579862500 -4.8940168160
-2.7526853125 1.0397400000 -5.7361662176
-6.1484517500 -2.0562734375 -3.2492811920
-4.9742265625 -2.1126437500 -3.2708203680
-3.8517518750 -1.9024275000 -3.2142978400
-2.7880796875 -1.7149609375 -3.1947144160
-6.1980750938 -0.9778737500 -3.2639428560
-6.1072577500 -1.5152125000 -2.3985161200
-5.0470578125 -0.9552584375 -3.2113706880
-5.0424621875 -1.5499618750 -2.4738449520
-3.8608625000 -0.8013990625 -3.2746023520
-3.9623828125 -1.3439784375 -2.4257153200
-2.7292906250 -0.6115003125 -3.2412380000
-2.8055618750 -1.1529912500 -2.3926359120
-6.1266964375 0.1047587500 -3.2221467520
-6.1549810313 -0.4456412500 -2.4026219040
-5.0661793750 0.2240837500 -3.1983927840
-5.0088818750 -0.3750675000 -2.4585097840
-3.9589159375 0.3557846875 -3.2318478000
-3.9091434375 -0.2333690625 -2.4844396880
-6.1587502500 1.2611496875 -3.1967478800
-6.1771260313 0.6816171875 -2.4412188640
-5.0150631250 1.2778928125 -3.2761306880
-5.0035740625 0.7799662500 -2.3597119280
-2.8479168750 1.6488887500 -3.2105676640
-3.8649475000 0.9252928125 -2.4308831680
-2.7503337500 0.4676250000 -3.2906498800
-2.7839543750 1.0413928125 -2.4978320560
-2.3101750000 0.0538709375 -4.8287905440
-6.6547998625 1.8840584375 -4.8655094640
-6.1402400938 1.8423081250 -5.7265454720
-5.5886213125 1.8251484375 -4.8527258400
-5.0373425000 1.8235493750 -5.6878332392
-4.5093025000 1.9606118750 -4.8201127040
-3.9394987500 2.0029937500 -5.6187252528
-3.3449431250 2.0751665625 -4.8686049920
-3.3727184375 1.5072171875 -4.0687542320
-6.1220524375 1.8585406250 -2.4623953840
-5.0620675000 1.8366912500 -2.4277876400
-3.9415009375 1.4927584375 -3.2182093440
-3.9471850000 2.0304734375 -2.3470578240
-2.8517196875 -0.0613690625 -2.4247050640
-2.7520403125 2.2206678125 -2.4335253760
-2.2608190625 -1.6601628125 -4.0910316720
-2.2786506250 1.7280759375 -3.9848900320
-6.7134351463 0.8004046875 -4.9024744720
-2.7795065625 2.2262981250 -5.6340837344
-3.7958518750 -1.9122503125 -6.4718120485
-2.7447168750 -1.7277668750 -6.4439662070
-6.1261804375 -0.9811121875 -6.4709700908
-2.8586131250 1.6534709375 -6.4329720313
-1.6030131250 -2.0990181250 -5.7237957624
-2.2186387500 -1.1051671875 -4.9258269280
1.7432871875 -1.2839665625 -3.2217063840
-1.6082537500 0.6476068750 -3.2548505520
-2.1472587500 -2.2255725000 -4.8701074240
-1.1399837500 -1.4979990625 -4.0506732400
-0.5302975000 -1.9291546875 -5.6846081912
-0.5824618750 -1.3542850000 -3.2514830320
-1.0698668750 -2.0529006250 -4.8395925120
0.0401378125 -1.8267743750 -4.8679055840
0.0127387500 -1.2959662500 -4.0076855520
0.6157062500 -1.8585137500 -5.6589140136
1.1724621875 -1.7660368750 -4.8431025040
1.1810084375 -1.2115653125 -4.0253520800
1.7390678125 -1.8577746875 -5.6614033880
-2.1813496875 -0.5489621875 -4.1090479040
-1.6223631250 -0.9854525000 -5.6244396752
-1.0363268750 -0.9256018750 -4.8449675920
-0.6055340625 -0.2270534375 -6.4590416874
-0.5941256250 -0.2580403125 -3.2302288000
-0.5255406250 -0.8218912500 -5.7063533040
0.0432418750 -0.7480387500 -4.8416777840
0.5524156250 -0.6946650000 -5.7253966296
-0.0237306250 -0.1848193750 -4.0177881120
0.6048218750 -1.2912765625 -6.4578867575
1.1141837500 -0.6909965625 -4.9045726960
1.0946187500 -0.1534831250 -4.0400655520
1.6986881250 -0.7023512500 -5.6301890680
-2.1882968750 0.6236881250 -4.0373067760
-1.7490921875 0.1132781250 -5.6223582888
-1.1324990625 -0.3435700000 -4.0941401520
-1.1394059375 0.2117078125 -4.9068911040
-0.5431437500 0.3095731250 -5.6283369320
0.0491946875 0.3308984375 -4.8961798000
-0.0117578125 0.8944000000 -4.0779372000
0.6247496875 0.4635668750 -5.6602402984
1.1701375000 0.4263987500 -4.8207084960
1.7117896875 0.3595471875 -5.6669468440
1.0759809375 1.0148134375 -4.0716554800
-2.2388218750 1.1865312500 -4.8454338640
-1.6846728125 1.2018365625 -5.7332740360
-1.0688590625 0.7721053125 -4.0876641520
-1.1828762500 1.3569456250 -4.8356292000
-0.6128306250 1.4533596875 -5.6309752544
-0.0363618750 1.4716346875 -4.8590334640
0.0435912500 2.0546609375 -4.1055767680
0.5474303125 1.5537109375 -5.6060815104
1.1554906250 1.5830853125 -4.8509384640
1.6573946875 1.4702640625 -5.7288561088
-1.7102175000 -1.5318615625 -3.2493330000
-0.5048603125 -0.8090584375 -2.4159883680
0.6013818750 -1.2998765625 -3.2656654720
0.5585565625 -1.8342993750 -2.4341600240
1.6721356250 -0.6987096875 -2.4545076160
-1.6422103125 -0.9837862500 -2.3847610960
-0.5705025000 0.2945768750 -2.4054454400
-0.5395156250 0.8720668750 -3.1959578080
0.5459656250 -0.0938609375 -3.2136890960
1.6906928125 -0.1404353125 -3.2506800080
-1.7240312500 1.1969453125 -2.4425140640
-1.6657931250 -0.4410993750 -3.2144144080
-0.5013128125 1.9508696875 -3.2752758560
-1.7226203125 0.1082525000 -2.3832975200
-0.5979553125 1.4278687500 -2.3955371600
0.5339390625 1.0195568750 -3.2218618080
1.6312856250 0.9260587500 -3.2778274000
1.7236684375 0.4067665625 -2.4002516880
-1.6662500000 1.7599900000 -3.2547469360
0.5731362500 2.0892356250 -3.2432067040
1.1527493750 2.1405400000 -4.0413348480
1.6759518750 1.4725753125 -2.4419053200
2.2269431250 -0.2385693750 -4.0904229280
2.2204125000 1.4324778125 -4.9057901840
1.6938909375 2.0696168750 -3.2041952800
1.6869975000 2.0925143750 -6.4026204440
-1.6237337500 -2.0761071875 -2.4303003280
-0.5278115625 -1.9435596875 -2.5014327120
1.6810446875 -1.8514053125 -2.4355588400
0.5918009375 -0.7029156250 -2.5035179840
0.5831337500 0.4647628125 -2.4163380720
0.5627625000 1.5695537500 -2.3673795120
-1.1074918750 1.9157575000 -4.0215441920
0.5466375000 -0.0965350000 -6.4618165238
-2.1728168750 2.2347503125 -4.9195193040
1.6893893750 -1.2783228125 -6.4664189264
-1.6608884375 -0.4283875000 -6.4586360307
-0.5293703125 0.8936475000 -6.4287288266
3.8917015625 -2.1867515625 -5.6189454368
6.7150009375 1.3362653125 -4.0308178240
2.2641918750 0.3798512500 -4.8124580720
2.2622031250 -1.4102118750 -4.0803333200
3.2857643750 -2.0977684375 -4.9963376160
4.5120840625 -2.2135728125 -4.8467808720
6.6948715625 -2.0870050000 -4.0592992720
6.7084568750 -0.9057681250 -4.1109907040
2.7923662500 -1.5527837500 -6.3909238814
2.3501381250 -1.9415843750 -5.0185114400
3.3532071875 -1.5802500000 -4.0906949200
3.4021868750 -0.9496953125 -4.8091164560
4.4471809375 -1.6625546875 -4.0597137360
5.0889828125 -1.7768271875 -6.4068268650
6.1699087500 -1.8977512500 -6.4460521266
5.6104518750 -1.8721125000 -4.0182414320
2.8001196875 -0.4372428125 -6.4705855330
2.7788212500 -0.3511353125 -3.2837076080
2.2635468750 -0.8042881250 -4.8251639840
2.8223587500 -1.0351309375 -5.6446629280
3.9684162500 -0.4982625000 -6.4047952143
3.3897975000 -0.4105693750 -4.0115193440
3.8878584375 -1.1175565625 -5.7220291096
4.4617068750 -1.1097493750 -4.8866730320
4.5421437500 -0.5939375000 -3.9899154080
5.0157081250 -1.1858190625 -5.6874420888
5.5888040625 -1.3542581250 -4.9144680240
5.5891534375 -0.8112487500 -4.0932853200
6.2143062500 -1.3514765625 -5.6130289632
2.8302331250 0.7643115625 -6.4151258590
2.2541943750 0.9229278125 -3.9876617600
2.7675471875 0.1277234375 -5.7163328200
3.3256065625 0.0999078125 -4.9165532960
3.3877012500 0.6529146875 -4.0329290000
3.9204712500 0.0968843750 -5.6894872096
4.4651065625 -0.0697271875 -4.8913228000
4.4476109375 0.4785900000 -4.0887391680
6.1599246875 -0.3081218750 -5.6598400816
5.6204628125 -0.1903959375 -4.8087278960
5.5886965625 0.3914343750 -4.0629905920
6.2018228125 0.2626359375 -6.4594144459
2.7945968750 1.3640271875 -5.7016167576
3.3325134375 1.1770443750 -4.8915559360
3.3304709375 1.7482993750 -4.0867704640
3.9361662500 1.2263331250 -5.6247867888
4.4928818750 1.0860590625 -4.8013452560
5.0217550000 1.0018328125 -5.6504369296
4.4774421875 1.6857746875 -4.0758907840
5.0803693750 -0.0475015625 -5.6296593312
5.6060578125 0.9791771875 -4.8243868640
6.1601665625 1.3842237500 -3.1955433440
6.1383978125 0.8157771875 -5.6596600488
2.8335521875 -1.3940062500 -3.2172508960
3.8945771875 -1.6221615625 -3.2374042080
3.9469834375 -2.1656278125 -2.3847999520
5.0106959375 -1.8050056250 -3.2639558080
6.1762646875 -1.8995250000 -3.2086507680
2.8101575000 0.1807209375 -2.4416592320
2.8352856250 -0.8716771875 -2.3631312560
3.9489990625 -0.5191309375 -3.2355650240
3.9651643750 -1.0728768750 -2.4163380720
5.1060753125 -0.6095115625 -3.1786798400
5.0437387500 -1.2317618750 -2.4948271920
6.1677050000 -0.8038043750 -3.2562364160
6.1798390625 -1.3442337500 -2.4015080320
2.8303271875 1.9746271875 -3.1910360480
2.8303675000 0.7692834375 -3.2238175600
3.9590234375 0.6883628125 -3.1940668160
3.8910162500 0.0640565625 -2.4888692720
5.0219565625 0.4929546875 -3.2603422000
5.0356896875 -0.0394793750 -2.4025182880
6.1577478125 0.2383543750 -3.2895878160
6.1902800000 -0.2590078125 -2.3728841120
2.2522728125 1.9684728125 -4.0162727280
3.8965793750 1.7620728125 -3.2829822960
3.9386521875 1.2359275000 -2.3944232880
5.6383481250 1.5444390625 -4.0410499040
5.0057643750 2.0794531250 -2.4481352320
6.1417706250 0.7917240625 -2.4629264160
5.0183150000 2.1168228125 -5.6422318376
5.6096053125 2.0811731250 -4.8950918320
6.1949831250 1.9624259375 -5.6465940712
5.0296293750 1.5405287500 -3.2903778880
6.1572909375 1.9751512500 -2.4415167600
2.7886171875 -1.9984653125 -2.4791682240
2.7628709375 1.3516512500 -2.4975859680
5.0804096875 1.0285734375 -2.3767438080
5.0665959375 1.5641518750 -6.4553172102
3.9398481250 0.6788893750 -6.4641908327
6.1280643750 1.3927565625 -6.4428787570
5.0735565625 -0.6014759375 -6.4567454273
2.8038687500 1.9523612500 -6.4639702990
-3.3229593750 6.6275362500 -4.8859865760
-2.7390865625 6.6599071875 -5.7032228056
-6.6947033250 6.3932265625 -4.8594738320
-5.6140249063 6.2683921875 -4.8807410160
-5.0378665625 6.3816837500 -5.6794804944
-4.4713684375 6.4114075000 -4.9023967600
-3.8764096875 6.4789175000 -5.6798962536
-3.3813318750 6.0546418750 -4.1029345600
-5.0513846875 6.3475525000 -2.4508422000
-3.9247846875 6.4728840625 -2.4068054000
-2.2757078125 6.1934109375 -4.0521109120
-6.1604339688 6.3375953125 -5.7237322976
-3.8629856250 2.5405206250 -3.2557960480
-6.1897451875 2.4258450000 -3.2617280640
-5.5902365000 2.3794184375 -3.9913530800
-4.4611156250 2.5435037500 -4.0468135440
-6.1881528438 3.0018031250 -5.6653123016
-6.6978876094 3.5568390625 -4.0258442560
-5.6296648125 2.8948406250 -4.8582304400
-5.5915345625 3.4813068750 -4.1007974800
-5.0518684375 2.9660862500 -5.6319298168
-4.4700246875 3.0828043750 -4.8803395040
-4.5025971875 3.6174287500 -4.0156121760
-3.8935156250 3.0939037500 -5.6831472056
-3.3760375000 3.2619396875 -4.8231823280
-3.3594959375 3.8191256250 -4.0003676720
-2.8144709375 3.3179203125 -5.6411140800
-6.1733205313 5.1712471875 -5.6623527696
-6.1587421875 4.0932237500 -5.5978932560
-5.6111855625 4.6567118750 -4.0594935520
-5.5812172500 4.0835621875 -4.8295417600
-4.4628356250 4.1706640625 -4.8576994080
-3.8935962500 5.3723662500 -5.6469010336
-4.4992781250 4.7331846875 -4.0565145920
-5.0471518750 4.0761984375 -5.6679881848
-3.3583940625 4.3447737500 -4.8543577920
-2.7744943750 5.0012896875 -6.4699995586
-3.3898915625 4.9206915625 -4.0349754160
-2.8120790625 4.4188412500 -5.6893706416
-6.7088187200 5.2713162500 -4.8388931040
-5.5780110625 5.2189100000 -4.8928381840
-5.5909325625 5.7405537500 -4.0049915360
-5.0155871875 5.2143681250 -5.6909352432
-4.4708712500 5.2999246875 -4.8578289280
-4.4767971875 5.8757887500 -4.0685210960
-3.3139293750 5.4652328125 -4.8567409600
-2.8374759375 6.1204184375 -3.2429476640
-2.7825837500 5.5801234375 -5.6858140224
-6.1545900000 2.9688409375 -2.4300930960
-4.9985081250 2.3982175000 -3.2394506240
-3.3368403125 2.6546856250 -4.1059264720
-2.8218884375 2.8070803125 -3.2017862080
-6.1247103750 3.5475403125 -3.2436729760
-5.0725621875 3.5647134375 -3.2151785760
-5.0514518750 2.9557662500 -2.4647008400
-3.9270018750 3.6634656250 -3.2386605520
-3.9678787500 3.1047075000 -2.4412447680
-2.7432656250 3.8625421875 -3.2821922240
-2.8580890625 3.3503181250 -2.3574064720
-6.1526939688 4.6143837500 -3.2147252560
-6.1770360000 4.0684181250 -2.3755004160
-5.0522312500 4.6492406250 -3.2314462880
-4.9914803125 4.1162153125 -2.3894367680
-3.9482196875 4.8392334375 -3.2345677200
-3.8771218750 4.2611253125 -2.4837402800
-2.7994881250 4.9809453125 -3.2613654080
-2.8231918750 4.4111415625 -2.4543521920
-6.1427300625 6.3203415625 -2.4826264080
-6.1763076875 5.7341575000 -3.2385051280
-5.0079681250 5.7845750000 -3.2277938240
-5.0275600000 5.2216243750 -2.4284740960
-3.9049509375 5.9216912500 -3.2373653520
-3.8865281250 5.3862471875 -2.3872478800
-2.7600625000 6.6583215625 -2.3739461760
-2.7486809375 5.5526571875 -2.4689102400
-2.2685590625 2.7661362500 -4.0639360880
-2.2875193750 4.5392278125 -4.8203976480
-6.1250154063 5.1900731250 -2.4128151280
-3.9292728125 4.2656403125 -5.6791631704
-2.2404746875 3.3481546875 -4.8455245280
-6.6902645156 4.6804290625 -4.0967953120
-4.9969628125 2.4211015625 -6.4624805729
-6.1059758125 2.4450875000 -6.4619696165
-3.9239246875 3.6755190625 -6.4280576539
-6.1212999375 5.7314565625 -6.4394583929
-5.0189062500 5.8009418750 -6.4500300743
-5.0493690625 4.6381412500 -6.4519961879
-2.2004846875 3.9405065625 -4.1018854480
-2.2287975000 5.1044762500 -4.0127756880
-2.2068003125 5.6350693750 -4.8740966400
-1.7006365625 6.2768309375 -3.2577129440
1.0814634375 2.6772606250 -4.9088468560
-1.7345528125 2.9713537500 -6.4462091048
-1.6203609375 2.3753334375 -5.7232789776
-1.1003028125 2.4832634375 -4.8305649680
-0.6014356250 4.2835256250 -6.4351547023
-1.1842065625 3.0197153125 -3.9903557760
-0.5607871875 2.5155671875 -5.7111779240
-0.0330562500 2.6658253125 -4.8011639280
0.0059931250 3.2290043750 -4.0029839760
0.4870287500 2.6469053125 -5.6697522472
1.6708590625 2.6863846875 -5.6560697544
1.7056756250 3.2309393750 -6.4607266130
1.0781040625 3.7826831250 -4.8440220960
-1.6955706250 3.5336190625 -5.6301683448
-1.0772037500 3.5343984375 -4.9013217440
-1.1189675000 4.0916112500 -4.0813824320
-0.5372984375 3.6737453125 -5.7143097176
0.5196550000 4.3626187500 -6.4533987600
-0.0545293750 4.3014378125 -4.0009634640
-0.0039640625 3.7568965625 -4.8642142640
0.5648990625 3.7694606250 -5.7126168912
1.0694771875 4.3382028125 -4.0488729120
1.6600553125 3.8160887500 -5.6433651376
-1.6654706250 5.1097168750 -6.4730078290
-1.7233593750 4.5982184375 -5.6304455176
-1.1441225000 4.6736700000 -4.8564819200
-1.0709284375 5.2511600000 -4.0858249680
-0.5770600000 4.8398918750 -5.6107260976
0.0478375000 4.8225037500 -4.9162165440
0.5279996875 5.4905356250 -6.4594645702
0.0211237500 5.3607293750 -4.0917958400
0.6223981250 4.9135965625 -5.6618605936
1.1807800000 4.9105193750 -4.8265109920
1.6177003125 5.4647087500 -6.4574848570
1.1083250000 5.4915434375 -4.0343278160
1.7133887500 4.8743993750 -5.6942833352
-1.6784378125 5.7289303125 -5.7227868016
-1.1526150000 5.8351268750 -4.8544096000
-1.1280781250 6.3839546875 -4.0219198000
-0.5777318750 5.9255746875 -5.6775221520
-0.0462384375 5.9695825000 -4.8127948240
0.0446125000 6.5656834375 -4.0904229280
0.4987059375 6.0333837500 -5.6420608712
1.1017540625 6.0056487500 -4.9065414000
1.1533003125 6.5792284375 -4.0963290400
1.6939715625 6.0253078125 -5.6472999552
-1.7487696875 2.9492625000 -3.1941963360
-1.6354781250 2.3411618750 -2.4950214720
-0.5745203125 3.0495868750 -3.2704965680
-0.5726390625 2.5095068750 -2.4353516080
1.1490406250 3.2081090625 -4.0432387920
0.5146428125 2.6467171875 -2.4153537200
1.7009859375 3.2570753125 -3.1879664240
-1.6709531250 4.0729062500 -3.2190900800
-1.6641806250 3.5156396875 -2.3980628000
-0.6031825000 4.2344115625 -3.1792885840
-0.5398112500 3.6228306250 -2.4765648720
0.5435603125 4.3604956250 -3.2134300560
0.5334553125 3.7705221875 -2.4676409440
1.6725118750 4.3206937500 -3.3134065440
1.6799159375 3.8150943750 -2.4005495840
-1.6162087500 5.1326815625 -3.2820756560
-1.7507450000 4.6200946875 -2.3766660960
-0.5311978125 5.3600709375 -3.2220431360
-0.5637165625 4.8126809375 -2.3989435360
0.5352021875 5.5083000000 -3.2288170320
0.6118362500 4.9387918750 -2.4519301680
1.6867018750 5.4024662500 -3.2640076160
1.6941865625 4.8552375000 -2.4229435920
-1.6821331250 5.6987228125 -2.4889469840
-0.5156371875 6.4154925000 -3.2950924160
-0.5983046875 5.9156309375 -2.3884135600
0.5970146875 6.5855978125 -3.2575445680
0.5621846875 6.0507181250 -2.3872478800
1.6640328125 6.5736250000 -3.1836275040
1.6796337500 5.9570856250 -2.4573700080
2.1999740625 6.5061687500 -4.0638972320
0.5920025000 3.1978696875 -3.2505116320
1.6436212500 2.6412078125 -2.4634833520
2.2359328125 2.4897940625 -4.9020729600
2.2058328125 3.0533225000 -4.0879879520
2.2094475000 3.6653200000 -4.8134294720
5.6479021875 6.5620553125 -4.8119011360
3.8989175000 2.2748209375 -5.6503436752
6.6793512500 2.4240309375 -4.0285641760
4.4634134375 6.6529868750 -4.8681905280
5.0800200000 6.6318496875 -5.6034937008
6.1591050000 6.3921112500 -5.6992724456
5.0232465625 6.6407184375 -2.3653590000
6.2100734375 6.4566381250 -2.4074530000
6.6698643750 4.0923234375 -4.8573626560
6.7077850000 5.8326946875 -4.0501422080
2.8306765625 2.5068596875 -5.6474074568
3.3616996875 2.3466712500 -4.7974985120
3.3354428125 2.9601871875 -4.0648427280
4.4682106250 2.2660865625 -4.8292827200
4.9857425000 2.6699103125 -6.4701783868
4.4950990625 2.8505237500 -4.0454924400
5.5733778125 2.6327959375 -4.0614104480
2.7983056250 4.1441921875 -6.4665256768
2.2739609375 4.2462903125 -4.0664099200
2.7605328125 3.5969903125 -5.6300595480
3.3475903125 3.5147796875 -4.8546815920
4.5071793750 3.3731484375 -4.8912321360
3.4001712500 4.0932640625 -4.0673295120
3.9138465625 2.8543803125 -6.4600575127
5.0816593750 3.2287625000 -5.6715953168
4.9936168750 3.8179700000 -3.1983280240
6.1586481250 3.0830059375 -5.7302963712
5.6445025000 3.2021159375 -4.8532827760