ITEM: TIMESTEP
122000
# source: voids-relax.122000.cfg
ITEM: NUMBER OF ATOMS
2298
ITEM: BOX BOUNDS pp pp pp
-6.7187500000 6.7187500000
-6.7187500000 6.7187500000
-6.4760000000 6.4760000000
ITEM: ATOMS x y z
-6.6952096500 -5.9140815938 -4.0016887760
-6.2036583750 -6.3762402188 -5.7041281504
-5.6482838125 -6.2886505625 -4.8879423280
-5.5252970938 -5.7695317188 -4.0231890960
-5.0552815625 -6.2738706563 -5.6496947800
-4.4942256250 -6.3136523750 -4.8352665440
-3.9015109375 -5.2430975000 -5.5972068000
-4.4227515625 -5.7094889375 -4.0916015600
-3.9431268750 -6.3467220625 -5.6718996888
-3.3853228125 -6.4415424375 -4.8541246560
-2.8409025000 -5.9832780000 -6.4249565566
-3.3500225000 -5.8514534375 -4.0963419920
-2.8210015625 -6.5444683125 -5.6181009664
-6.1614646250 -5.2533368750 -5.7380831136
-5.6233491875 -5.2041959375 -4.8408359040
-5.5476638125 -4.6514712500 -4.0276057280
-5.1024740625 -5.1716503125 -5.7190903008
-4.5284106250 -5.1724162500 -4.9229515840
-4.4525156250 -4.6220968750 -4.0779372000
-3.3985721875 -4.7817478125 -4.0381745600
-2.7174656250 -5.3986916563 -5.6808896720
-6.1788514063 -3.5481450000 -6.4314790542
-6.7099932381 -3.6585878125 -4.0919771680
-6.1094897188 -4.1420287500 -5.6786295480
-5.0025528125 -4.0288581250 -5.6502776200
-5.6336597813 -3.5398003125 -4.0667725760
-4.4149578125 -4.0554240625 -4.8872429200
-3.8362046875 -4.1250975000 -5.6725965064
-4.5181578125 -3.5306896875 -4.0278647680
-3.3143459375 -4.1970015625 -4.7959442720
-3.2889893750 -5.3007578125 -4.9115538240
-3.9211028125 -3.5590293750 -3.3112306080
-2.7983325000 -4.2767934375 -5.7421526320
-6.7159217556 -3.0901681250 -4.8901700720
-6.1205125000 -2.9888896875 -5.5990136040
-5.5153466250 -2.9736381250 -4.8748478560
-5.5600048125 -4.1035303125 -4.8619347120
-5.5970587188 -2.4093034375 -4.0785977520
-4.9604262500 -2.9167706250 -5.6887657832
-4.4311903125 -2.9373031250 -4.8012027840
-4.4483768750 -2.3521403125 -4.0501163040
-3.9235215625 -3.0594500000 -5.7422614288
-3.3956025000 -3.0633737500 -4.8391262400
-3.3226906250 -2.4994018750 -4.0308696320
-2.8445306250 -3.1758859375 -5.6439440920
-6.1063668438 -5.8099933750 -3.2588009120
-6.1896215625 -6.3709203125 -2.4407396400
-4.9611250000 -5.7187487188 -3.2366918480
-5.0523118750 -6.2617984063 -2.4108334720
-3.8952356250 -5.8157473125 -3.2034181600
-3.9365425000 -6.3713005938 -2.3662008800
-2.8351512500 -5.9686378438 -3.1853760240
-2.7810518750 -6.5548380313 -2.4287849440
-6.1384367813 -4.6510143750 -3.2516514080
-6.1551651250 -5.2430303125 -2.4783263440
-5.0071081250 -4.6111721875 -3.2168364320
-5.0603609375 -5.1637087500 -2.4038782480
-3.9259134375 -4.6843662500 -3.1964370320
-3.8901965625 -5.2457850000 -2.4027255200
-2.8130868750 -4.3090837500 -2.4034119760
-6.1781674375 -3.5535737500 -3.2151397200
-6.1282457813 -4.1159465625 -2.4104190080
-5.0835406250 -3.4547275000 -3.2377409600
-4.9954578125 -4.0097231250 -2.4620068240
-3.8846200000 -4.0928743750 -2.4431357600
-3.3070225000 -3.6191756250 -4.0218032320
-6.1255381250 -2.4595328125 -3.2309670640
-6.1306712500 -2.9984975000 -2.3827535360
-5.0224268750 -2.3524225000 -3.2770373280
-4.9955518750 -2.8908093750 -2.4218038160
-3.9075712500 -2.4677431250 -3.2162406400
-3.9043731250 -3.0366734375 -2.4339139360
-2.7711618750 -2.5878743750 -3.1898574160
-2.7549831250 -3.7725243750 -3.2389973040
-2.2851006250 -6.0565715000 -4.0172441280
-2.7930246875 -4.8408728125 -3.2861425840
-2.2764871875 -4.3744303125 -4.8330776560
-2.2493434375 -2.7475925000 -4.0370088800
-2.7423250000 -5.3773582813 -2.4450138000
-2.7981981250 -3.1856146875 -2.4756582320
-3.8985009375 -5.7818041875 -6.4676565029
-2.2445059375 -3.2659978125 -4.9150508640
-6.6739917031 -5.3474934375 -4.8302411680
-6.7102513053 -4.7959781250 -4.0176844960
-6.6683229594 -4.2461559375 -4.8574144640
-6.6824766781 -2.5320684375 -4.0745178720
-3.9877125000 -4.7135256250 -6.4668229252
-2.7861043750 -2.6119140625 -6.4362850234
-4.9615953125 -4.5770946875 -6.4722550328
-6.1407050313 -2.4607018750 -6.4585498999
-2.2019628125 -4.9324359375 -4.0240309760
-1.6261256250 -5.0242543750 -3.2391527280
-1.6439168750 -5.5508458125 -5.7363384792
-2.1948275000 -6.5825972188 -4.9170454720
-1.7474393750 -6.1436424688 -6.4719126726
-1.6174450000 -6.6944666906 -5.6641440312
-1.0971315625 -6.2316863125 -4.0089807520
0.0664215625 -6.3816380625 -4.0745826320
1.1399165625 -6.5621735625 -4.0533024960
-2.1828412500 -5.5048237188 -4.8266664160
-1.1458962500 -5.6772241563 -4.8142454480
-0.5940584375 -5.7506815938 -5.6553923648
-0.5237400000 -4.6292456250 -5.6276673136
-1.0604471875 -5.0830837500 -4.0604520000
-0.0024993750 -5.8227522813 -4.8906622480
-0.0143109375 -5.2795803125 -4.0614622560
0.5822603125 -5.9258058125 -5.6454866752
1.1558131250 -5.9840130313 -4.8474543760
1.1372156250 -5.4346087500 -4.0388480640
-2.1657621875 -3.8019928125 -4.0483807360
-1.7271353125 -4.4635075000 -5.6482363848
-1.1225418750 -4.5466184375 -4.9196617760
-0.5622115625 -4.0858331250 -6.4478332856
-1.1184434375 -4.0272321875 -4.0551416800
0.0604821875 -4.7191425000 -4.8650561440
1.1246650000 -4.2489106250 -4.0751913760
0.0183287500 -4.1502525000 -4.0712280640
0.6255693750 -4.8086900000 -5.6886103592
1.1641040625 -3.7157106250 -4.9183665760
1.1551815625 -4.8643884375 -4.8062152080
-1.6435943750 -3.3231878125 -5.6468025984
-1.0954250000 -3.4427278125 -4.8351111200
-1.0936781250 -2.8626175000 -4.0728341120
-0.5341943750 -3.4843303125 -5.6877684792
0.6014759375 -3.1613465625 -6.4574642633
-0.0069337500 -3.5639340625 -4.8289330160
0.5455759375 -3.7079303125 -5.6350020312
1.1130953125 -3.1958540625 -4.0208706880
1.6804400000 -3.2499803125 -6.4332397491
1.7002065625 -3.2027206250 -3.2257474080
1.7453565625 -3.8062793750 -5.6421813248
-1.6812462500 -6.1121207813 -3.2736957120
-1.6339596875 -6.6718899438 -2.4737154320
-0.5026968750 -6.2934759688 -3.2643443680
0.5841550000 -6.4728195625 -3.2056070480
1.7001796875 -6.5922472250 -3.2162147360
-1.6764356250 -5.5855387500 -2.4208194640
-0.5359546875 -5.1654287500 -3.1829928560
-0.5438021875 -5.7549211250 -2.4323337920
0.5752459375 -5.3400490625 -3.2767782880
0.5927550000 -5.8800202188 -2.4334865200
1.7229562500 -5.4724863750 -3.2657561360
1.6654840625 -6.0047470938 -2.4318286640
-1.6459593750 -3.8705240625 -3.1872281600
-1.6765296875 -4.4609140625 -2.4499614640
-0.5350275000 -4.0191025000 -3.2663130720
-0.5310768750 -4.5740175000 -2.4408562080
0.5591746875 -4.2764575000 -3.2335315600
0.5770465625 -4.8275831250 -2.3727804960
1.6378834375 -4.3620006250 -3.2155412320
1.7078256250 -4.9168081250 -2.4234746240
-1.6675400000 -3.2775540625 -2.4399236640
0.0515462500 -2.9827756250 -4.0659177440
-0.5713087500 -3.5083968750 -2.3615122560
0.5632865625 -3.1480971875 -3.1772162640
0.5828381250 -3.7261112500 -2.4207676560
1.6962021875 -6.0020528750 -5.7090395488
2.2231000000 -4.3692703125 -4.0077244080
-0.5731900000 -2.4215853125 -5.6439648152
-1.1160918750 -2.2787850000 -4.8132092880
0.0347359375 -2.4333700000 -4.9030702640
0.5854046875 -2.5610531250 -5.7081730600
1.1327678125 -2.6405493750 -4.8808575840
1.7070731250 -2.6286706250 -5.6911165712
-1.6402350000 -2.7365737500 -3.2728926880
-0.5358203125 -2.9815528125 -3.2605882880
0.5935343750 -2.5237909375 -2.4968477040
1.7577056250 -3.7726184375 -2.4602842080
2.2386606250 -2.6795584375 -4.8495007920
-0.5237131250 -2.4388659375 -2.4317120960
1.6648256250 -2.6374453125 -2.4063520800
1.6892012500 -4.9110031250 -5.6769004560
2.2374243750 -6.5539148750 -4.0460882320
2.2244437500 -3.2454518750 -4.0715389120
-0.5151803125 -5.1817150000 -6.4588348439
-1.6106590625 -3.9002746875 -6.4417264176
0.5332806250 -5.3847448750 -6.4688643417
-1.7066162500 -2.7690521875 -6.4631309835
1.7239775000 -6.6035285438 -6.4524239925
6.6932456250 -6.4600620000 -4.8547334000
2.2441028125 -6.0072424375 -4.8776713920
2.2584406250 -4.9178562500 -4.8494101280
6.2166712500 -5.4396572188 -5.6845240032
3.3369746875 -6.3828514688 -4.0812399600
4.4707906250 -6.2713457500 -4.1164564480
5.0256787500 -6.6515193656 -5.7087442432
5.5917065625 -6.7100945569 -4.8782801360
5.6014353125 -6.1396407813 -4.0642598880
6.1495509375 -6.5327333438 -5.6897488400
2.7845321875 -4.8075209375 -5.7081199568
2.8568259375 -6.5282425313 -6.4626761481
3.3950650000 -5.8450289688 -4.9218895200
2.8486156250 -5.4229745625 -3.1680073920
3.9956943750 -5.8212096563 -5.6797434200
4.5232640625 -5.6695190938 -4.8404214400
5.0809875000 -4.5504212500 -5.6415414960
4.4765418750 -5.0914015625 -4.0924822960
5.1054034375 -5.6464563125 -5.6360407816
5.6740784375 -5.5439940313 -4.8352017840
5.5864121875 -4.9760003125 -4.0818875600
3.3486384375 -4.7629621875 -4.8798473280
3.3941243750 -5.3092503125 -4.0409592400
3.4193196875 -4.2499050000 -3.9957567600
3.8944831250 -4.6866775000 -5.6956290480
4.4716103125 -4.5472231250 -4.9215268640
4.5486071875 -4.0074521875 -4.0367627920
5.6256228125 -4.3923693750 -4.8500318240
5.6429571875 -3.8077575000 -4.0896587600
6.2005193750 -4.3247518750 -5.6374123984
2.3177671875 -3.8195690625 -4.8397997440
2.8359171875 -2.6009490625 -5.6010975808
2.8582906250 -3.6765403125 -5.6849553048
3.3958175000 -3.6859868750 -4.8067721440
3.3677868750 -3.1069246875 -4.0490153840
4.4626206250 -3.4653565625 -4.8671025600
5.5460325000 -3.2415684375 -4.8671543680
6.1302412500 -3.2123956250 -5.6271116728
5.6585581250 -2.6908325000 -4.0283439920
6.1918925000 -3.7523278125 -6.4411716834
2.8196443750 -6.5780970000 -3.2335574640
3.9235484375 -6.3634584688 -3.2700302960
5.0130878125 -6.1500131875 -3.2785397600
5.0659912500 -6.6971020531 -2.4715135920
6.1467962500 -5.9747089063 -3.2546821760
6.1426978125 -6.5563390000 -2.4792329840
2.3125400000 -5.4598806563 -4.0272948800
2.8109234375 -6.0290635938 -2.4442625840
3.9627859375 -5.2869171875 -3.2120053360
3.9701093750 -5.8315081563 -2.3785700400
5.0336740625 -5.0912000000 -3.2587879600
5.1098109375 -5.6042867500 -2.3902009360
6.1327003125 -4.8433318750 -3.2615855920
6.2129356250 -5.4021504688 -2.4662291760
2.8127509375 -4.2363734375 -3.2826455440
2.8074700000 -4.7972143750 -2.4943220640
3.9933696875 -4.1166856250 -3.2187792320
3.9169506250 -4.6977500000 -2.4516711280
5.1117593750 -3.9818000000 -3.2163442560
5.0619868750 -4.5489431250 -2.3967416960
6.1867056250 -3.7656578125 -3.2304878400
6.1924165625 -4.3186243750 -2.3830773360
2.7958062500 -3.1267315625 -3.2675046560
2.8396393750 -3.6901256250 -2.4294584480
6.2231078125 -2.6703806250 -3.2227036880
3.9021693750 -3.5377846875 -2.4702961040
4.5141400000 -2.9225890625 -3.9938010080
5.0184628125 -3.4127487500 -2.4485237920
5.0991012500 -2.8404590625 -3.2329098640
6.1548856250 -3.2297703125 -2.3859526800
3.4257293750 -2.5377659375 -4.8499023040
3.9125968750 -3.5398406250 -5.7106261688
3.9826868750 -2.4482318750 -5.6628086800
2.8287281250 -2.6191434375 -2.3644264560
3.9177971875 -2.9663012500 -3.2531797440
3.9909106250 -2.4168150000 -2.4278524000
2.8675490625 -5.3918600313 -6.4652474698
2.8228425000 -5.9585650938 -5.6854643184
6.1302681250 -4.8627087500 -6.4567683523
4.0022921875 -4.1093218750 -6.4679132634
5.0238646875 -3.4366003125 -5.7022436344
4.5433934375 -2.3686281250 -4.8411985600
5.0648356250 -2.2729531250 -5.7264561032
5.0694312500 -2.2469515625 -2.4800360080
4.0051543750 -5.2557959375 -6.4652469258
5.0296428125 -5.0959434375 -6.4706416928
6.2218043750 -2.6560025000 -6.4657006862
-6.1859450625 -1.8789253125 -5.6596989048
-5.6383682813 -1.8245437500 -4.8238946880
-4.9792521875 -1.2622381250 -6.4676070004
-5.5348834063 -1.2354840625 -4.0687930880
-5.0784209375 -1.8353340625 -5.6446642232
-4.4982165625 -1.8060537500 -4.8770367440
-3.9336534375 -1.3447981250 -6.4041542198
-4.4501506250 -1.2400796875 -4.0663710640
-3.9339893750 -1.9291546875 -5.6423613576
-3.3316937500 -1.9731625000 -4.9248037200
-2.8348421875 -1.4713121875 -6.4655285152
-3.3885075000 -1.4613281250 -4.0233056640
-2.7413843750 -2.0243459375 -5.6688870536
-6.1922606875 -0.8051615625 -5.6845486120
-5.6499715625 -0.6773440625 -4.8355514880
-5.0618256250 -0.1648915625 -6.4464981934
-5.6036336875 -0.1219318750 -4.0208577360
-5.0908371875 -0.7147540625 -5.6382996104
-4.4837846875 -0.6931196875 -4.9241949760
-3.9599640625 -0.1738946875 -6.4568487842
-4.4917128125 -0.1804118750 -4.0201712800
-3.8775384375 -0.7353940625 -5.6703156592
-3.3547390625 -0.8994659375 -4.8256173040
-3.3554512500 -0.2932331250 -4.0913943280
-2.7868031250 -0.8929218750 -5.6695709192
-6.6808618938 0.2683468750 -4.8775548240
-6.2262159063 0.8850475000 -6.4362649478
-6.1348852500 0.3064690625 -5.6886155400
-5.5725997813 0.4192768750 -4.8741225440
-5.6829364375 0.9585506250 -4.0292117760
-5.0258534375 0.4623978125 -5.7207365000
-4.5145296875 0.3798781250 -4.8295547120
-4.4911215625 0.9699187500 -4.0562037440
-3.9383028125 0.3942428125 -5.6572950136
-3.3921893750 0.2919700000 -4.8145174400
-2.8318725000 0.6986693750 -6.4426352594
-3.3785503125 0.8837171875 -4.0587682400
-2.8371265625 0.1586296875 -5.6119902128
-6.1860539063 1.4661656250 -5.6667150032
-5.6320472813 1.4997056250 -4.8596940160
-5.6485901875 2.0902703125 -4.0790899280
-5.0527687500 1.5794571875 -5.6567251256
-4.5211946875 1.5434312500 -4.8063447280
-3.9707409375 2.0001584375 -6.4474579366
-4.5336512500 2.1403518750 -4.0603613360
-3.9717621875 1.4464931250 -5.6243036792
-3.3668059375 1.4386859375 -4.8695375360
-2.8275053125 1.8693443750 -6.4445583724
-2.8166881250 1.2999706250 -5.6930179248
-6.1031552813 -1.3642690625 -3.2662353600
-6.1706048125 -1.9034353125 -2.4123100000
-5.0028350000 -1.2832812500 -3.2175617440
-5.0649296875 -1.8357103125 -2.3843725360
-3.9141959375 -1.2832140625 -3.1839772080
-3.8996565625 -1.8751493750 -2.4629134640
-2.7724115625 -1.4442759375 -3.2680745440
-2.7782300000 -1.9966109375 -2.4443532480
-6.1801454375 -0.2605665625 -3.2475844800
-6.1811814688 -0.8095018750 -2.4401956560
-5.0376246875 -0.1270515625 -3.2151138160
-5.0600250000 -0.7045146875 -2.4480963760
-3.8936768750 -0.1676865625 -3.2619741520
-3.9169371875 -0.7024990625 -2.4152371520
-2.8195100000 -0.4118996875 -3.2405904000
-2.7963571875 -0.9360159375 -2.3517464480
-6.2209040625 0.8877484375 -3.2090911360
-6.1209599688 0.3232256250 -2.4583414080
-5.0757871875 1.0211156250 -3.2890438320
-5.0327871875 0.4559343750 -2.4591573840
-3.9533931250 0.9041690625 -3.2330264320
-3.9391225000 0.3609850000 -2.3829996240
-6.1896350000 2.0372996875 -3.2235714720
-6.2170004688 1.4771171875 -2.4604007760
-5.0950700000 2.0906600000 -3.2292703520
-5.0625915625 1.5280721875 -2.4055620080
-2.7680846875 1.8945128125 -3.2710276000
-3.9232125000 1.4886331250 -2.4578621840
-2.8484006250 0.7235018750 -3.2042211840
-2.8349631250 1.3393425000 -2.4798935360
-2.2439281250 -0.3960568750 -4.0716166240
-2.2862696875 0.6579134375 -3.9852397360
-2.2817815625 1.1954403125 -4.8418720640
-3.3983303125 1.9584753125 -3.9638171280
-3.9944178125 2.0570259375 -3.2258898800
-2.7756096875 0.1599062500 -2.4351961840
-2.2525415625 -1.0008115625 -4.8119529440
-6.6972583313 -1.4025525000 -4.0051599120
-6.1306860313 2.0354587500 -6.4520267546
-2.2125246875 -2.1802612500 -4.8197889040
-1.6521137500 -2.2031856250 -5.6725032520
-1.6752665625 -2.2269834375 -2.3516946400
1.7357756250 -2.1008993750 -3.2646552160
-1.6532962500 0.6243868750 -3.2868938000
-2.2245646875 -1.5818759375 -4.0772118880
-1.1018884375 -1.6737750000 -4.0676662640
-0.5920293750 -1.8479787500 -3.1854537360
-0.0378265625 -1.9198290625 -3.9969094880
1.1491346875 -2.1078600000 -4.0279554320
-1.6908809375 -0.5972431250 -6.4431179805
-1.7053128125 -1.1411125000 -5.6174779752
-1.0821084375 -1.1425906250 -4.9076034640
-0.5827037500 -0.6927837500 -6.4365452290
-0.5352828125 -0.6544465625 -3.2750556720
-0.5280400000 -1.2732300000 -5.6901658944
0.0301671875 -1.3849762500 -4.8576346480
0.5809031250 -1.3910096875 -5.7148459304
0.0148618750 -0.8136406250 -4.0514892160
0.5378493750 -1.9865462500 -6.4632858376
1.0941618750 -1.5417918750 -4.8105282240
1.1454931250 -0.9168675000 -4.0972097760
1.6402753125 -1.5410662500 -5.6745315352
-2.2076468750 0.1420612500 -4.8987183920
-1.7216931250 0.5932118750 -6.4347775401
-1.6648121875 0.0102931250 -5.7028679208
-1.1698150000 -0.6305546875 -3.9749169920
-1.1274600000 -0.0952987500 -4.8401883040
-0.5721956250 -0.0865912500 -5.7065838496
-0.0638684375 -0.2482981250 -4.8240112560
0.5609753125 0.2288003125 -6.4499063827
0.0394793750 0.3550859375 -4.1009658560
0.5147100000 -0.3277406250 -5.6086045600
1.1270971875 -0.3697731250 -4.8990940000
1.7100696875 -0.4302418750 -5.6458583976
1.0818396875 0.1884878125 -4.0666689600
-2.2111003125 1.7719896875 -4.0568642960
-1.7154984375 1.1991087500 -5.6983528536
-1.0902381250 0.4779718750 -4.0506732400
-1.1966228125 1.0465662500 -4.8225735840
-0.6252603125 0.9767046875 -5.5990744784
-0.0029696875 0.9212078125 -4.8964647440
0.5168600000 1.3568112500 -6.4418695372
-0.0693106250 1.4423812500 -4.0254297920
0.5644690625 0.7879346875 -5.6516699600
1.1487718750 0.7549993750 -4.8813497600
1.7154446875 0.7160978125 -5.6803223744
1.0768543750 1.8352400000 -4.8079378240
1.6235187500 0.1214884375 -6.4422675522
-1.6815150000 -1.6978550000 -3.2428310960
-0.5257690625 -1.2342075000 -2.4972492160
0.5816959375 -1.9481284375 -3.2810783520
1.6470746875 -1.5651059375 -2.4052641120
-1.6327234375 -1.1336681250 -2.4307925040
-0.6230834375 -0.1287715625 -2.4129057920
-0.5205418750 0.4245309375 -3.2471570640
0.6015162500 -0.8622171875 -3.2644609360
1.6664784375 -1.0121259375 -3.2201521440
-1.7607693750 1.1464203125 -2.3901232240
-1.7304543750 -0.5534503125 -3.1854278320
-0.6238359375 1.5217028125 -3.1876555760
-1.6711681250 0.0729656250 -2.4920166080
-0.5668743750 0.9579996875 -2.3926488640
0.5384809375 0.2164646875 -3.1843916720
1.6332743750 0.1394946875 -3.2341403040
1.7169765625 -0.4302553125 -2.4413742880
-1.6659275000 1.6925203125 -3.2137150000
0.5285640625 1.3834309375 -3.2650308240
1.1131759375 1.2774225000 -4.0051858160
1.6859896875 0.6929987500 -2.4145506960
2.1945050000 -1.5106706250 -4.8640588400
1.7177021875 1.2455890625 -3.2619741520
-0.5221409375 2.0894909375 -5.6604928624
0.0363753125 2.0050228125 -4.8302152640
0.5697903125 1.9543903125 -5.7175697360
1.6280471875 1.8191553125 -5.6676630896
-0.5039196875 2.1221171875 -2.4593646160
0.5390318750 1.9347984375 -2.4477078160
2.1896675000 1.8655818750 -4.8745758640
0.5323400000 -1.4268743750 -2.4192263680
0.5401606250 -0.3541587500 -2.3811215840
0.5921503125 0.8235709375 -2.4650246400
-1.1200290625 1.6569243750 -4.1070144400
1.6402215625 1.7835996875 -2.4289662720
2.1845343750 0.1181290625 -4.0306105920
-1.0972525000 2.2141506250 -4.9051684880
-0.5699918750 1.5187331250 -6.4466358732
-0.5682046875 -1.8570625000 -6.4486047067
2.8629131250 -2.0605868750 -6.4624261745
6.6791093750 -1.9520925000 -4.8494230800
6.6794453125 1.9015271875 -4.0155085600
2.2852484375 -0.4225287500 -4.8588262320
2.2486581250 0.6810528125 -4.8342951440
6.7042375000 -0.8430821875 -4.8045314480
6.6736537500 -0.2612250000 -4.0250153280
6.6636293750 0.8191231250 -4.0620321440
6.6800634375 1.3760537500 -4.9156984640
2.2897903125 -2.0891415625 -4.0916663200
3.3438815625 -1.9613643750 -4.0920419280
3.9122340625 -1.8796375000 -6.4618485153
4.4280325000 -1.8233075000 -4.0360504320
4.9895587500 -1.6792440625 -6.4728464729
5.5984387500 -2.1372075000 -4.8515860640
5.5703812500 -1.6008362500 -3.9957308560
6.1462990625 -2.0750590625 -5.6997283560
2.8070400000 -0.9698515625 -6.4664785574
2.8202490625 -0.9342556250 -3.2397614720
2.7699793750 -1.5135462500 -5.6459762608
3.3495253125 -1.3867634375 -4.8889396320
3.3804987500 -0.8570706250 -4.0433553600
3.9397137500 -1.3228278125 -5.6096821664
4.5399803125 -1.2635818750 -4.8764927600
4.4704546875 -0.7092715625 -4.0875993920
5.0962928125 -1.1162262500 -5.6624732232
5.6556825000 -1.0472381250 -4.8513140720
5.5421759375 -0.4853893750 -4.0458421440
6.1925778125 -0.9226187500 -5.7154261800
2.2449359375 -0.9777259375 -4.0119467600
2.8202625000 -0.3651640625 -5.7257282008
3.3373375000 -0.2745818750 -4.8208250640
3.3411268750 0.2835984375 -4.0005360480
3.8838137500 -0.2206975000 -5.6884083080
4.4248478125 -0.1213406250 -4.8441904720
4.5018312500 0.4473612500 -4.0561519360
6.1412465625 0.2193268750 -5.5928639944
5.5752456250 0.0618796875 -4.8763243840
5.6044721875 0.6574565625 -4.1104596720
2.8262421875 0.7533331250 -5.6358827672
3.3970134375 0.8221600000 -4.8461462240
3.8645981250 1.4833521875 -6.4447716918
3.3444862500 1.4108300000 -4.0743494960
3.9408425000 0.9065609375 -5.6968050896
4.4712878125 1.0221906250 -4.8489956640
5.0406481250 1.0804556250 -5.6625107840
4.4711534375 1.5926393750 -3.9949019280
4.9844928125 -0.0065306250 -5.6256623440
5.5551028125 1.3119031250 -4.6846218320
6.0367834375 1.8416900000 -3.4067775120
6.0561603125 1.2942193750 -5.6409379328
2.8029550000 -2.0685687500 -3.1895336160
3.8609296875 -1.8568743750 -3.2101920560
4.9850840625 -1.6755890625 -3.2439061120
6.1625987500 -1.5152393750 -3.2613913120
6.1636200000 -2.0881875000 -2.4704126720
2.7810787500 -0.3560668750 -2.4530181360
2.7799231250 -1.4737443750 -2.4127633200
3.9401975000 -0.7398553125 -3.2179891600
3.9475478125 -1.2889384375 -2.3874810160
5.0016659375 -0.5380106250 -3.2060862720
5.0883915625 -1.1116037500 -2.4341470720
6.1000471875 -0.3575853125 -3.2386346480
6.1752434375 -0.9489293750 -2.4760208880
2.7841021875 1.3123465625 -3.2136761440
2.7752200000 0.2102834375 -3.2677766480
3.9624768750 0.3519550000 -3.2818554720
3.8513218750 -0.1819840625 -2.4101988240
5.0631828125 0.5566887500 -3.2189346560
5.0109646875 0.0189603125 -2.3763682000
6.1230253125 0.7582915625 -3.1869561680
6.1825803125 0.1940912500 -2.4175685120
2.2658312500 1.2807415625 -4.0981682240
3.8837331250 1.4767140625 -3.2472736320
3.9106618750 0.9010918750 -2.4691563280
5.1269034375 1.6500175000 -3.4159345760
4.9675212500 1.1278900000 -2.4355717920
6.1142775000 1.3535325000 -2.4155998080
2.7863865625 1.8445790625 -5.6049935424
3.3908456250 1.9694403125 -4.8914134640
3.9964603125 2.0421775000 -5.6204413928
4.5568309375 2.1391425000 -4.8563912560
3.9910181250 2.0263078125 -2.4417369440
5.0531718750 2.1532653125 -2.4457520640
2.8197250000 0.7367243750 -2.4175296560
2.8203028125 1.8715481250 -2.3950579360
5.0363212500 -0.5464896875 -6.4610193282
5.1169462500 2.2142715625 -5.6907694576
5.6236206250 2.2260831250 -4.6835079600
6.1039709375 -0.3342040625 -6.4483890559
6.1750553125 0.7422068750 -6.4681840638
2.7941131250 1.3119434375 -6.4658289498
-3.8923868750 3.1911778125 -3.2432196560
-6.2336522188 2.5945393750 -5.6667642208
-5.6552054688 2.6514337500 -4.8730863840
-5.0244156250 3.2120059375 -6.4626344426
-5.5476638125 3.1905596875 -4.0380838960
-5.0740537500 2.6657984375 -5.6175518016
-4.4728331250 2.6839390625 -4.8816476560
-3.9328068750 3.1747706250 -6.4459785592
-4.4685734375 3.2302540625 -4.0359079600
-3.9201353125 2.5957084375 -5.6923884576
-3.3959250000 2.4785468750 -4.8334403120
-2.8371668750 2.4669100000 -5.6995742272
-6.1811559375 3.6960246875 -5.7009950616
-5.6287927188 3.7685737500 -4.8317695040
-5.6130197813 4.3189737500 -4.0097319680
-5.0904743750 3.8001384375 -5.6893952504
-4.5337587500 3.7862709375 -4.8730993360
-4.4414700000 4.3405946875 -4.0595712640
-3.9577737500 3.7539403125 -5.6691538648
-3.4039606250 3.6218631250 -4.8704571280
-2.8417893750 4.0820168750 -6.4514621770
-3.3716568750 4.2146853125 -4.0961865680
-2.8126837500 3.5449871875 -5.5925091096
-6.6783192500 4.7316125000 -4.8732159040
-6.1790583438 5.3661984375 -6.4390901675
-6.1104021250 4.8030193750 -5.6587443424
-5.5600410938 4.8754609375 -4.8311607600
-5.6374693125 5.4674096875 -4.0674201760
-5.0299384375 4.9333228125 -5.7084308048
-4.4910275000 4.9064209375 -4.8608726480
-3.8779146875 5.9863390625 -5.7217998592
-4.5089800000 5.4579900000 -4.0286807440
-3.9164937500 4.8523215625 -5.6389964280
-3.3289390625 4.7751634375 -4.8853260240
-3.3858871875 5.2973850000 -3.9977513680
-2.7627365625 4.6703240625 -5.6809440704
-6.1388882813 6.4618384375 -6.4570824383
-6.6582437594 6.4304887500 -4.0617342480
-6.1501677188 5.9284234375 -5.6118865968
-5.5457261250 6.0078659375 -4.8971900560
-5.5909648125 6.5663956250 -4.0821854560
-4.9745759375 6.0553271875 -5.6582612328
-4.4083465625 6.0047753125 -4.8495526000
-4.5070584375 6.5699565625 -4.0339133520
-3.3625328125 5.8623512500 -4.8120306560
-3.3151118750 6.4516259375 -4.0379025680
-2.8202625000 5.8015062500 -5.7028653304
-6.1517466250 3.1476537500 -3.2825030720
-6.2274938125 2.5998337500 -2.4315955280
-5.0167159375 3.2363815625 -3.2034440640
-5.0793884375 2.6714690625 -2.4393149200
-3.9529496875 2.6356312500 -2.4390429280
-3.3475231250 3.0786118750 -4.0651924320
-2.8126703125 2.9767825000 -3.1906863440
-6.2013068125 4.2600771875 -3.2785656640
-6.1664244063 3.6998006250 -2.4646360800
-5.0128190625 4.3717025000 -3.2754571840
-5.0909984375 3.8292440625 -2.4497542320
-3.9115353125 4.2641756250 -3.2012422240
-3.9683356250 3.7274550000 -2.3601134400
-2.8556031250 4.1219665625 -3.2058919920
-2.7659750000 3.5528481250 -2.4180347840
-6.1764514688 5.3779696875 -3.2163183520
-6.1171719375 4.8011650000 -2.4303521360
-5.0817131250 5.4786837500 -3.2421316880
-5.0379740625 4.9172918750 -2.4270752800
-3.9394584375 5.4274331250 -3.2329357680
-3.9105543750 4.8623325000 -2.4542356240
-2.7554803125 5.2485128125 -3.3058555280
-2.7811056250 4.7232275000 -2.4551034080
-6.1246633438 6.4801671875 -3.1960096160
-6.1381102500 5.9162490625 -2.3746973920
-5.0543543750 6.6071784375 -3.2102568160
-4.9707193750 6.0349290625 -2.4347946720
-3.9081087500 6.5684515625 -3.2916601360
-3.8897396875 6.0121793750 -2.4654779600
-2.7649268750 6.3221421875 -3.2276124960
-2.8432137500 5.7687590625 -2.3961847600
-2.3088581250 2.3310971875 -4.8488143360
-2.2999490625 5.7101178125 -4.8264462320
-2.8677103125 2.4115206250 -2.3821966000
-2.2730740625 2.9224681250 -4.0943473840
-2.3037384375 3.9922006250 -4.0047195440
-6.6895521938 3.6065443750 -4.7910484160
-1.0631212500 6.6550965625 -4.8372482000
-1.7215856250 2.2580106250 -5.5997104216
-2.2384053125 4.5614534375 -4.8075751680
-0.5241565625 6.6056734375 -5.7304284816
-0.0255581250 6.4610187500 -4.8039745120
1.1057718750 6.3467059375 -4.9120330480
0.5203000000 6.4249928125 -5.6642346952
1.6934206250 6.2856728125 -5.6381959944
-0.5703009375 6.5946546875 -2.4185917200
0.5596450000 6.4119450000 -2.4097714080
1.7249584375 6.2981965625 -2.4151853440
-1.7105534375 2.7913315625 -6.4484639185
-1.2116056250 2.7329725000 -4.0172441280
-0.0151171875 2.5564978125 -4.0072192800
1.1021034375 2.9739606250 -4.8517544400
-2.1859453125 3.4814143750 -4.9004798640
-1.7305350000 3.9481525000 -6.4619529084
-1.6274425000 3.3802300000 -5.6860160736
-1.0955190625 3.2922009375 -4.8245293360
-1.0960565625 3.8592231250 -4.0220752240
-0.5453206250 3.2481393750 -5.7175645552
0.0297506250 3.7254796875 -4.0884153680
-0.0426371875 3.1155515625 -4.8065908160
0.5140246875 3.0299950000 -5.6334724000
1.6502325000 3.4993131250 -6.4613141158
1.0890959375 3.5429312500 -4.0543775120
1.6410278125 2.9337153125 -5.6619149920
-2.1796834375 5.1457293750 -4.0429279440
-1.6965246875 4.5420362500 -5.7081342040
-1.1774071875 4.4207628125 -4.8215374240
-1.0682946875 5.0161381250 -4.0876512000
-0.6215381250 4.3230184375 -5.6203675664
-0.0077131250 4.2828000000 -4.9004021520
0.5127615625 4.6903593750 -6.4221247313
-0.0248190625 4.8080450000 -4.0296780480
0.5722896875 4.1233371875 -5.6320437944
1.1657300000 4.1008696875 -4.8613648240
1.1072500000 4.6558115625 -4.0346645680
1.7091021875 4.0814390625 -5.6875767896
-1.6791365625 6.1610668750 -6.4417676050
-2.2083725000 6.3183662500 -4.0878195760
-1.7235206250 5.6144831250 -5.6006170616
-1.1037696875 5.5726656250 -4.9056606640
-0.6105865625 6.0014831250 -6.4513364130
-1.1717096875 6.0929521875 -4.0273078320
-0.5252718750 5.4465815625 -5.6442691872
0.0500009375 5.3679184375 -4.8723869760
0.0042865625 5.8957165625 -4.0067918640
0.5960337500 5.2989706250 -5.7271736440
1.0999131250 5.2071253125 -4.8367171680
1.6902359375 5.7411987500 -6.4690688408
1.1494168750 5.7990606250 -4.0696738240
1.6767850000 5.1697153125 -5.6464580752
-1.7583506250 2.8224662500 -3.1947403200
-1.6574350000 2.2577284375 -2.4091497120
-0.6054534375 2.6686740625 -3.2845883440
1.1709303125 2.4194756250 -4.0427466160
1.7032568750 2.3636159375 -3.2016178320
-1.6862181250 3.9691956250 -3.2966596080
-1.6334625000 3.4196690625 -2.4635222080
-0.5226246875 3.7509303125 -3.2401888880
-0.5982106250 3.1957600000 -2.4119732480
0.5329043750 3.5941550000 -3.1981985040
0.5321653125 3.0235315625 -2.4120639120
1.6546534375 3.5425281250 -3.2638651440
1.6647181250 2.9650381250 -2.4717726320
-1.6209656250 5.0305162500 -3.2272627920
-1.7432200000 4.4769584375 -2.3902268400
-0.5722896875 4.8671700000 -3.1696652480
-0.5809434375 4.2960896875 -2.4055620080
0.5498625000 4.7345821875 -3.2368731760
0.6061521875 4.1807287500 -2.4371519360
1.6798890625 4.6443762500 -3.2604199120
1.6717593750 4.0714953125 -2.4132295920
-1.7041706250 6.1544421875 -3.1773716880
-1.6920903125 5.5805131250 -2.4033731200
-0.5700187500 6.0545209375 -3.2668570560
-0.5259840625 5.4923093750 -2.4702313440
0.6030750000 5.8605237500 -3.2435823120
0.5370700000 5.3032975000 -2.4343802080
1.6751725000 5.7048368750 -3.1805578800
1.6994137500 5.1532006250 -2.3657087040
2.2162200000 2.9629553125 -4.8667269520
2.1957143750 5.7779234375 -4.0744401600
0.5856465625 2.5014981250 -3.2790707920
-0.6162975000 2.6554515625 -6.4529765248
0.5657321875 3.5849906250 -6.4753113448
-0.5464628125 4.8775706250 -6.4458724823
6.7098275000 3.0484043750 -4.0315431360
2.2706553125 2.3934203125 -4.0323850160
2.2503109375 4.0321234375 -4.8226512960
2.2522862500 4.6224596875 -4.0736759920
2.2878553125 6.3381462500 -4.8866471280
2.8552134375 6.3437362500 -5.6700177632
3.4099537500 6.4650231250 -4.8303836400
3.9585934375 6.5459571875 -5.6639212568
4.5210737500 6.5593946875 -4.8238169760
2.8343853125 6.3259046875 -2.3743347360
3.9650165625 6.5433906250 -2.4100045440
6.6727131250 2.4717206250 -4.8496950720
6.6384340625 4.2025781250 -4.0408038160
6.7183065625 5.3131337500 -4.0830014320
6.6897384375 5.8640040625 -4.8824636320
2.8227618750 2.3957315625 -6.4183186566
3.3754731250 2.5261425000 -4.0701530480
4.4301690625 2.7147378125 -4.0782091920