ITEM: TIMESTEP
194000
# source: voids-relax.194000.cfg
ITEM: NUMBER OF ATOMS
2298
ITEM: BOX BOUNDS pp pp pp
-6.7187500000 6.7187500000
-6.7187500000 6.7187500000
-6.4760000000 6.4760000000
ITEM: ATOMS x y z
-4.9866293750 -6.7162060394 -5.6210397752
-5.5409114688 -6.2823550938 -4.1007715760
-3.8983262500 -5.4415586250 -5.6168627552
-4.3997331250 -6.6939893906 -4.8583081520
-3.8600696875 -6.5736518750 -5.7002140560
-4.4905840625 -6.1126461875 -4.0940106320
-3.9588218750 -5.9814840938 -6.4527913112
-3.3683915625 -4.8270187500 -4.0804757920
-3.3204331250 -6.4771047813 -4.8414316960
-6.7049241563 -5.8765358750 -4.8169912720
-6.1850178750 -5.7956165938 -5.7073998256
-5.0921271875 -5.6227982500 -5.6355511960
-5.6044506875 -4.5631062500 -4.8172632640
-4.4926400000 -5.5511078438 -4.9013087920
-4.4049468750 -5.0013971875 -4.0951245040
-3.8607281250 -3.7848734375 -3.2779957760
-3.3901468750 -5.9377826563 -4.0142004080
-2.7384281250 -5.2536325000 -5.6857764616
-6.1341300625 -4.6662659375 -5.6752620280
-6.7122675081 -4.2058434375 -4.0630683040
-4.5537134375 -4.3988193750 -4.8241019200
-5.6365488438 -3.9857909375 -4.0112214480
-3.9913675000 -4.3332040625 -5.6397372824
-3.2908303125 -5.3958133438 -4.8842121520
-4.4563453125 -3.8457721875 -4.0246397200
-3.3993918750 -4.2668631250 -4.8885510720
-3.9005837500 -4.8789143750 -3.1834202720
-2.8057903125 -4.1372046875 -5.6021997960
-3.9599371875 -4.3108709375 -2.4017541200
-5.5615864063 -3.4590140625 -4.8955969600
-5.5982506250 -2.9251287500 -4.0582890160
-5.0591246875 -2.8470434375 -3.1845600480
-4.9874490625 -3.4148315625 -5.6749874456
-4.4454206250 -3.2741006250 -4.8209545840
-4.5319178125 -2.7069440625 -4.0222436000
-3.9129328125 -3.2288700000 -5.7076821792
-3.4038262500 -3.1161293750 -4.8007883200
-3.9143168750 -2.7021871875 -3.2841997840
-2.8501340625 -3.0303040625 -5.6564544288
-6.6552669500 -6.4332085000 -4.0028933120
-6.0776173125 -6.3559966250 -3.2373005920
-5.0173743750 -6.1580528438 -3.2000765440
-3.9593728125 -6.0027180313 -3.2212530640
-3.8650146875 -6.5656283438 -2.4235911920
-2.8233128125 -4.7050465625 -3.2242967840
-2.8178034375 -5.7848988438 -3.2369767920
-6.1153511563 -5.2429765625 -3.2782807200
-6.2002103125 -5.8037261250 -2.4405453600
-5.6543387500 -5.6892735625 -4.8352017840
-5.0769293750 -5.6179204375 -2.3805905520
-5.5496552500 -5.1277903125 -4.0284994160
-2.2697012500 -4.6003684375 -4.0492226160
-6.1771730625 -4.0667653125 -3.1938725360
-6.1607309375 -4.6918509375 -2.4885195680
-5.0221446875 -3.9974143750 -3.2680745440
-4.9643634375 -5.0727234375 -3.2608343760
-2.8018531250 -4.1491371875 -2.4004071120
-3.2905884375 -3.7106581250 -4.0746603440
-6.1809758750 -2.8954990625 -3.2625181360
-6.1574078438 -3.4757303125 -2.4730160240
-5.0023646875 -3.4371915625 -2.4631984080
-3.9304150000 -3.2393109375 -2.4180995440
-2.7621050000 -2.4524646875 -3.2410178160
-2.7724115625 -3.5683012500 -3.1882384160
-2.7748437500 -5.2537400000 -2.3866002800
-2.2415228125 -3.5028068750 -4.0463861280
-6.7014820063 -2.4961768750 -4.8113442000
-6.1716489063 -2.4325368750 -5.6966690936
-6.1231381875 -3.0140715625 -6.4681646099
-5.6004019688 -2.3587918750 -4.8708327360
-6.1455667188 -2.3700659375 -2.3908485360
-3.3419600000 -2.5400503125 -4.0215312400
-2.7744675000 -6.4163202500 -5.6987984024
-2.7950940625 -6.3682005625 -2.4607634320
-3.8976275000 -5.4502607500 -2.3984513600
-5.0771846875 -4.5425065625 -2.4141880400
-2.8458071875 -3.0058209375 -2.4071680560
-5.0720112500 -4.5431784375 -5.7158458248
-6.1594503438 -3.5450140625 -5.6241599120
-3.8801318750 -4.8808628125 -6.4490847078
-2.2742565625 -2.9590450000 -4.8975656640
-2.2530118750 -5.7765635625 -4.0469948720
-6.6997207531 -4.7804578125 -4.8594220240
-5.0357837500 -2.2854500000 -5.6438223432
-6.0774775625 -6.3640967500 -6.4751629731
-2.8174675000 -5.8337092188 -6.4456824765
-6.1851925625 -4.0995393750 -6.4625813394
-2.8344793750 -4.6684428125 -6.4530017812
-5.0683562500 -2.8462506250 -6.4622831844
-5.0068125000 -6.1838824063 -6.4721579705
-2.7830137500 -3.6011290625 -6.4681170631
-2.1994365625 -5.1802637500 -4.8066944320
-1.7104190625 -4.6222312500 -3.2513794160
-1.0903859375 -6.2773872500 -4.8081580080
-2.2341321875 -6.3272659063 -4.8629320160
-1.6480556250 -6.2563105313 -5.6276983984
-1.0881284375 -5.1145409375 -4.8613777760
-1.1253771875 -5.6872176250 -4.0716554800
-0.5790890625 -5.8188930313 -6.4546894268
0.0617990625 -6.3647457813 -4.8443070400
0.0195381250 -5.3041037500 -4.8724905920
0.5098859375 -5.9631956563 -6.4321035997
-0.0001612500 -5.8263857813 -3.9867162640
1.1578421875 -6.0412151250 -4.0162209200
0.6073750000 -6.5398337188 -5.6714761584
0.5888715625 -5.9406542500 -3.2350080880
1.1595218750 -6.5793345938 -4.8751457520
-1.6649734375 -5.2012262500 -5.6516362848
-0.6032093750 -4.6835331250 -6.4562662033
-0.5293165625 -4.0779050000 -5.6979098952
-1.1183493750 -4.5944425000 -3.9913271760
-0.5304856250 -5.2423987500 -5.6726975320
0.0081162500 -4.7549668750 -4.0349365600
0.5981568750 -5.3591034375 -5.6933922376
1.1091043750 -5.4780548750 -4.8012545920
1.7617234375 -4.9891421875 -6.4503116508
1.1361675000 -4.8856062500 -4.0584703440
-2.1897750000 -4.0653812500 -4.8845100480
-1.6342150000 -4.0570903125 -5.6914999504
-1.0932481250 -4.0537040625 -4.8584376720
-1.6736540625 -3.4753137500 -3.1931731280
-0.0138540625 -4.1810109375 -4.8103987040
1.1435043750 -3.7894959375 -3.9956790480
0.0061812500 -3.5982265625 -4.0499608800
0.5149921875 -4.2737431250 -5.6698027600
1.1015390625 -3.2708621875 -4.8932785520
1.0928584375 -4.3294012500 -4.8617274800
-1.6787737500 -2.9081303125 -5.6564673808
-1.1258878125 -2.9309471875 -4.8398126960
-0.5278653125 -2.3879109375 -6.4373795969
-1.1059062500 -2.3538065625 -4.0536910560
-0.5891806250 -2.9850600000 -5.6780726120
0.5357262500 -2.5574921875 -6.4388685588
-0.0282053125 -3.0470337500 -4.8558731760
0.5393140625 -3.1209803125 -5.6559959280
1.1010687500 -2.7121981250 -4.0683915760
1.6713159375 -2.7050896875 -3.2259028320
1.7230503125 -3.2602062500 -5.6291114616
-1.7008918750 -5.7210075625 -3.2458230080
-0.6008981250 -5.8243916563 -3.2459654800
-0.5122778125 -6.3421533125 -2.3899159920
0.5060831250 -5.4034216563 -2.4066888320
0.5697096875 -6.5276499375 -2.4633279280
1.7077987500 -6.0885930625 -3.1988849600
1.6518046875 -6.6778883094 -2.4148485920
-1.6855865625 -5.1645015625 -2.4046942240
-0.5305662500 -4.6423875000 -3.2094019840
-0.5794653125 -4.0728928125 -2.4176980320
0.5791696875 -4.8337912500 -3.2111764080
1.6706037500 -4.9880268750 -3.2294905360
1.7025312500 -5.5442815938 -2.4013914640
-1.6834365625 -2.9144459375 -2.4097843600
-1.6828318750 -4.0727181250 -2.4340693600
-1.1509353125 -3.4973512500 -4.0425005280
-0.5643481250 -3.5188646875 -3.2537625840
0.5472153125 -3.7293765625 -3.2417819840
0.5895837500 -4.2681128125 -2.4060541840
1.7297421875 -3.8186015625 -3.2286875120
1.6774837500 -4.4091259375 -2.4737931440
-1.6678087500 -2.3523284375 -3.2104381440
0.0204518750 -2.4767059375 -4.0368793600
-0.5276637500 -2.9836087500 -2.3930633280
0.5786187500 -2.5493490625 -3.2167198640
0.5573606250 -3.1418621875 -2.4821342320
1.6368353125 -5.5677260000 -5.6693105840
2.2196331250 -5.6194455938 -4.8676465440
2.2144328125 -4.5592631250 -4.8792126800
-2.1956740625 -2.4291371875 -4.0456349120
-0.5552375000 -2.4397662500 -3.2433880320
1.6399931250 -3.2802550000 -2.4081135520
2.2054700000 -2.8140946875 -4.0857990640
-0.5397171875 -6.3750026250 -5.6242803656
-1.6763684375 -6.2663873125 -2.4062096080
-0.5937359375 -5.2306946875 -2.4825486960
1.6541696875 -4.4254121875 -5.6586549736
1.7412581250 -6.6368818969 -5.6932394040
-1.7129453125 -4.6200543750 -6.4604665369
-1.7295406250 -3.4752196875 -6.4503340578
1.6667068750 -3.8413378125 -6.4139127747
0.6169559375 -3.7034287500 -6.4446482593
6.6951537500 -5.3041306250 -3.9980104080
6.7147187500 -3.6336209375 -4.8377792320
6.1886137500 -5.9710418125 -5.7040051064
6.1757137500 -4.8424987500 -5.6433172152
6.7066965625 -3.0443596875 -4.0632107760
2.2578493750 -6.1962489375 -4.0872108320
3.9511759375 -6.4143086563 -6.4281007841
3.3667253125 -6.3548087500 -4.0435625920
4.4834621875 -6.5280436563 -4.0551157760
5.6222096875 -6.5496914688 -4.0220493200
3.3623312500 -4.7129612500 -4.8145951520
2.7748168750 -5.7091073125 -5.6586329552
3.3740084375 -5.3002740625 -4.0556209040
3.9702437500 -5.8497845000 -5.6277035792
4.5193403125 -5.9618895313 -4.8466254480
5.0287156250 -4.9100490625 -5.6906321664
4.4745262500 -5.3803951563 -4.1038282480
5.0990609375 -6.0284844375 -5.6357014392
5.6616487500 -6.0020878125 -4.8416648320
5.5742781250 -5.4379305000 -4.0293672000
2.8203834375 -4.0299062500 -3.2302806080
3.3522128125 -4.1069300000 -4.0948136560
3.3518768750 -5.8375496563 -4.9001172080
3.3730543750 -3.5075637500 -4.8311996160
3.9158487500 -4.7676518750 -5.6593103448
4.5006890625 -4.7802428125 -4.8574792240
4.4564528125 -4.2448390625 -4.0187854160
5.0487240625 -4.3284740625 -6.4406468684
5.5997018750 -4.8934537500 -4.8779174800
5.5981431250 -4.3326262500 -4.0638195200
2.2458362500 -4.0172346875 -4.0659306960
2.2456078125 -3.4146300000 -4.8066685280
3.8960015625 -3.6574859375 -5.6767424416
3.9179315625 -3.0784640625 -6.4356958369
3.3416643750 -2.4378715625 -4.8636443760
4.4886221875 -3.1759262500 -4.0272689760
4.4510509375 -2.6162678125 -4.8337641120
5.0249396875 -2.6062971875 -5.6416554736
5.5942193750 -3.7556468750 -4.8212783840
5.5822734375 -3.1437031250 -4.0987769680
6.1619000000 -3.7447087500 -5.6493243528
2.7891546875 -6.3526318750 -3.2059956080
3.9235081250 -6.4295051250 -3.2547080800
5.0445987500 -6.5535802813 -3.2417301760
6.1902128125 -6.5617435625 -3.2426109120
2.2664493750 -5.1087493750 -3.9967281600
2.8281368750 -5.7272573438 -2.4854110880
3.9467684375 -5.3261546875 -3.2240766000
3.9164803125 -5.8812349688 -2.4031270320
5.0019212500 -5.4615428750 -3.2281953360
5.0702778125 -6.0087245938 -2.4081783120
6.1418512500 -5.3905821250 -3.2284802800
6.1826743750 -5.9737051250 -2.4788703280
2.7487078125 -4.5850362500 -2.4049273600
2.8395318750 -5.1479600000 -3.2251386640
3.8716125000 -4.2623615625 -3.2271073680
3.9407350000 -4.7723550000 -2.3668484800
5.0298175000 -4.3389553125 -3.2641371360
5.0907565625 -4.8804059375 -2.4349371440
6.1512037500 -4.2289559375 -3.2581921680
6.1665090625 -4.8023071875 -2.4674725680
3.3412209375 -2.9719584375 -3.9893196160
2.7411021875 -2.9612084375 -3.2475974320
6.1513784375 -3.1971978125 -3.2461856640
3.9434090625 -3.6590446875 -2.4820953760
3.9301596875 -3.0853843750 -3.2477787600
5.0121337500 -3.7821321875 -2.4375016400
5.0799125000 -3.2171390625 -3.2338424080
6.1380753125 -3.7060356250 -2.3591420400
2.7852040625 -2.3834228125 -5.6853114848
4.4797803125 -3.7104028125 -4.9062694080
3.9305628125 -2.4785468750 -5.6584011144
5.6040556250 -2.6067003125 -4.9059326560
6.1846765625 -2.6440162500 -5.6991468112
2.8318590625 -3.4851096875 -2.3640249440
3.8828328125 -2.5329015625 -2.4304298480
5.0389012500 -2.6635812500 -2.4156516160
6.1649637500 -2.6113765625 -2.4315696240
2.8362262500 -2.3856131250 -2.4729771680
2.8105740625 -5.1270378125 -6.4247181102
2.8312946875 -4.5481503125 -5.6261713576
2.8004018750 -3.4963837500 -5.6443857552
5.0764993750 -3.7346037500 -5.6791333808
2.8798578125 -6.2666372500 -6.4691788033
-5.0645265625 -2.2350325000 -2.4834553360
-3.9232662500 -2.1594734375 -2.4652966320
-2.2581181250 -1.8415287500 -4.8060856880
-5.6010362188 -1.8111868750 -4.0276704880
-4.4612634375 -2.1704921875 -4.8917372640
-3.9311809375 -1.5435925000 -6.4413553428
-4.4748218750 -1.6359215625 -4.0511136080
-3.8591693750 -2.1162315625 -5.6520766528
-3.3248003125 -1.9858475000 -4.8268606960
-3.4145359375 -1.4184625000 -4.0451038800
-6.2023885313 -1.3433200000 -5.5855474096
-5.6357210938 -1.2500368750 -4.8547334000
-5.5817104063 -0.6691068750 -4.0376305760
-5.0791196875 -1.1471996875 -5.6980316440
-4.5451537500 -1.0733203125 -4.8645251120
-4.4320503125 -0.5236325000 -4.0308825840
-3.9526137500 -0.9850090625 -5.6261506344
-3.3575071875 -0.8824406250 -4.9076423200
-2.7912106250 -0.2465646875 -6.4346582522
-3.3011100000 -0.3518609375 -4.0439511520
-2.7572675000 -0.8163012500 -5.6346924784
-6.1310475000 -0.2117078125 -5.6525753048
-5.5424245313 -0.1182365625 -4.8665067680
-5.0931887500 0.5607603125 -6.4589951897
-5.6305651250 0.4268153125 -4.0778594880
-4.9971106250 -0.0171731250 -5.6724928904
-4.4390915625 0.0463325000 -4.8169653680
-4.5325090625 0.6161765625 -4.0388739680
-3.9340968750 0.1608468750 -5.7142333008
-3.3841268750 0.2202271875 -4.8371834400
-3.3371359375 0.7664346875 -4.0078668800
-2.8366293750 0.3285468750 -5.6443896408
-6.1089172813 1.4457271875 -3.2474031520
-6.2285607500 0.8870362500 -5.6299947880
-5.6030330313 0.9950065625 -4.8948846000
-5.0203843750 1.6504743750 -6.4498662315
-5.5628979063 1.5486046875 -4.0905654000
-5.0161918750 1.1042937500 -5.6191889344
-4.4134662500 1.1607446875 -4.8728273440
-4.4799550000 1.7362056250 -4.0938034000
-3.8550575000 1.2826362500 -5.6712313656
-3.3101131250 1.3320459375 -4.8081968640
-2.7906596875 1.4435771875 -5.7090693384
-6.2266042500 -1.8599112500 -3.3360595920
-5.0480925000 -1.6655512500 -3.2406810640
-3.9303075000 -1.5473818750 -3.1729421040
-2.8176825000 -1.3835653125 -3.2433491760
-6.1537931563 -0.7495840625 -3.2157355120
-6.1234418750 -1.3328253125 -2.4318027600
-5.0334590625 -0.5683256250 -3.2673492320
-5.0452571875 -1.1066856250 -2.4112479360
-3.8930587500 -0.3711571875 -3.2395412880
-3.9219225000 -0.9386765625 -2.4638719120
-2.7735268750 -0.2422781250 -3.1956858160
-2.7812803125 -0.8126596875 -2.4271529920
-6.1169327500 -0.1967250000 -2.4090720000
-5.0844946875 0.5392334375 -3.2240118400
-4.9897468750 -0.0179793750 -2.4376700160
-3.9416084375 0.7334456250 -3.2831377200
-3.9076115625 0.1922100000 -2.4298858640
-6.1548453125 1.9860356250 -2.4275415520
-6.1873237500 0.3398612500 -3.2430512800
-5.0258668750 1.6537934375 -3.2312131520
-5.0005775000 1.0962581250 -2.4056397200
-2.8419775000 2.0028996875 -3.2534387840
-3.8686696875 1.2658528125 -2.4116883040
-2.7616481250 0.9037121875 -3.2430512800
-2.7766846875 1.4652653125 -2.4332404320
-2.7770206250 -1.9287784375 -5.7164882440
-2.2663687500 -1.2703543750 -4.0359079600
-2.2489134375 1.5119875000 -4.8277414320
-2.2532671875 2.0718743750 -4.0001604400
-6.1539691875 2.0169284375 -5.6617880624
-5.6305154063 2.1366162500 -4.8305131600
-3.4040950000 1.9172893750 -4.0585351040
-6.1419641250 0.8885546875 -2.3973633920
-5.0247112500 2.1813228125 -2.3738296080
-3.9465265625 1.8207006250 -3.2115390640
-2.8095259375 -1.9119546875 -2.3863412400
-2.8198325000 0.3479506250 -2.4419441760
-2.2459437500 0.4011900000 -4.8955710560
-6.6912781063 -0.9014278125 -4.1115087840
-6.6903948594 -0.3942025000 -4.8620901360
-6.7090176488 0.2480965625 -4.1153037200
-6.6720670500 1.3825709375 -4.0626408880
-5.0614762500 2.2196196875 -5.6418368016
-5.0105212500 -1.7279953125 -6.4465902822
-3.8671781250 -0.4389762500 -6.4523335875
-6.1523916250 0.3219625000 -6.4488539032
-6.1061505000 1.4423678125 -6.4579364932
-3.9634040625 1.8475084375 -6.4679677265
-2.1919653125 -0.7208950000 -4.8458871840
-2.1852868750 0.9430706250 -4.0395345200
1.6302912500 -1.6523825000 -3.2717658640
-1.6434600000 0.9878846875 -3.1996879840
-1.7262081250 -1.8074781250 -5.6777203176
-1.0911115625 -1.2620500000 -4.0241864000
-0.5751250000 -1.8207409375 -5.6499175544
-0.5308350000 -1.2848400000 -3.2054645760
-1.1557459375 -1.8099103125 -4.8817512720
0.0019887500 -1.9613778125 -4.9067486320
-0.0123087500 -1.3990990625 -4.0817709920
0.6191731250 -1.9867881250 -5.6377672832
1.1567134375 -2.1241731250 -4.8158514960
1.0906009375 -1.5275078125 -4.0817191840
1.7005962500 -2.2057521875 -5.6586912392
-1.7172990625 -0.1023668750 -6.4671528515
-2.2325868750 -0.1375865625 -4.0591049920
-1.6496950000 -0.6786878125 -5.6869434368
-1.0989187500 -0.7167428125 -4.8579454960
-0.5928759375 -0.1565603125 -3.2396967120
-0.5295718750 -0.6994084375 -5.6594890824
0.0285950000 -0.8049196875 -4.8283760800
0.5574546875 -0.9206568750 -5.6748760584
-0.0082909375 -0.2423721875 -4.0269969840
1.1287768750 -0.9457581250 -4.8288682560
1.1825537500 -0.3884378125 -4.0092009360
1.6625815625 -1.0749059375 -5.6632943800
-1.6465775000 0.4333728125 -5.6218725888
-1.1379815625 -0.1375596875 -4.0670445680
-0.5346109375 0.9706981250 -6.4452698258
-1.0696384375 0.4300537500 -4.8432190720
-0.5414237500 0.3837884375 -5.6931370832
0.0160040625 0.3069259375 -4.8399940240
0.5632462500 0.8131837500 -6.4617980025
0.0499068750 0.8756546875 -4.0262457680
0.5600078125 0.2285853125 -5.6856275136
1.0970778125 0.1344825000 -4.8615072960
1.7037540625 0.0604956250 -5.6219541864
1.1690759375 0.7199140625 -4.0785588960
-1.6418743750 2.1192953125 -6.4521689676
-1.6993062500 1.5491421875 -5.6745716864
-1.1054896875 1.0001531250 -4.0594546960
-1.1393387500 1.5594890625 -4.8681128160
-0.5577368750 1.5389028125 -5.6435801408
0.0028621875 1.4000800000 -4.8696411520
0.0420728125 1.9816146875 -4.0974688160
0.6031018750 1.3482650000 -5.6232986040
1.1712796875 1.2896640625 -4.8432967840
1.7103518750 1.1159978125 -5.6787266880
-1.6794187500 -1.2376071875 -3.2714938720
-0.5442859375 -0.7210025000 -2.4354034160
0.5457909375 -1.4399221875 -3.2276254480
0.5552778125 -1.9967050000 -2.4028161840
1.6943881250 -1.0953578125 -2.4629652720
-1.6850356250 -0.7093118750 -2.4137865280
-0.5002512500 0.3906281250 -2.4167654880
-0.5417193750 0.9392812500 -3.2613654080
0.5639987500 -0.3686981250 -3.2891992560
1.7466196875 -0.5176125000 -3.2432973680
-1.6709800000 1.6004331250 -2.4535491680
-1.6757503125 -0.1324534375 -3.2173545120
-0.4922425000 2.0708531250 -3.2340107840
-1.6727000000 0.4315990625 -2.4138642400
-0.5651678125 1.4958087500 -2.4436408880
0.6195628125 0.7794018750 -3.2398391840
1.7142756250 0.6057759375 -3.2125881760
1.6318096875 0.0378937500 -2.4245107840
-1.6553656250 2.1283253125 -3.2806250320
0.5785650000 1.8784550000 -3.2184813360
1.1404406250 1.8626928125 -4.0485102560
1.7281296875 1.1612284375 -2.4017282160
2.2312565625 -1.1513384375 -4.8725683040
1.6836784375 1.7140471875 -3.2323529280
1.7164659375 1.7089678125 -6.4227005772
-1.6760862500 -1.7793265625 -2.4222959920
-0.5899196875 -1.8762109375 -2.4539377280
1.7500328125 -2.1764181250 -2.3745937760
0.6214978125 -0.8889175000 -2.3996558960
0.5570650000 0.1893478125 -2.4763705920
0.5514212500 1.3141203125 -2.4059117120
-1.0663462500 2.0951078125 -4.0268415600
-0.5613918750 -1.2821390625 -6.4666323365
0.5996350000 -0.3472384375 -6.4530767733
2.2277493750 2.1665012500 -4.8846525200
1.7175409375 -1.6410412500 -6.4630400993
1.6867153125 -0.4985312500 -6.4415853703
-1.6500712500 0.9790696875 -6.4637561636
2.2736250000 -2.2146075000 -4.8150484720
6.6504875000 0.7939681250 -4.8814663280
2.2914834375 -0.5857137500 -4.0731579120
2.2884331250 1.6630518750 -3.9750465120
6.7018993750 -1.7371328125 -4.3945876960
6.6864059375 1.9310090625 -4.8685790880
2.2712196875 -0.0001881250 -4.8457058560
2.8185962500 -1.7722853125 -6.4185454461
2.8356215625 -1.8025196875 -3.2400205120
3.4099940625 -0.1741500000 -4.8655483200
4.5316625000 -2.0264825000 -4.1012248960
6.1472934375 -2.0022950000 -6.4055855454
5.6301512500 -2.0711218750 -3.9962877920
2.8388331250 -0.6548362500 -3.2026151360
2.8330818750 -1.2180421875 -5.6283770832
3.9032309375 -0.9074075000 -3.2251257120
3.3936540625 -1.3290628125 -4.8333496480
3.9567390625 -1.4260009375 -5.6422214760
4.5449925000 -1.4345740625 -4.8167710880
5.0449750000 -1.4629406250 -5.6907228304
5.6487621875 -1.5366856250 -4.9137815680
6.2082728125 -0.9092618750 -3.2202816640
6.2769384375 -1.4641365625 -5.5603389320
2.8262959375 0.4311690625 -6.4369560665
2.2559278125 0.5694275000 -4.0703861840
2.8162312500 -0.1449906250 -5.6641064704
3.3599931250 -0.7541796875 -4.0691427920
3.9399421875 0.3246768750 -6.4373417770
3.3846778125 0.3554890625 -4.0174902160
3.9180928125 -0.3056896875 -5.7069154208
4.4941450000 -0.3773787500 -4.8844970960
4.4711803125 0.2077437500 -4.0320094080
6.1750015625 -0.3846081250 -5.6248088072
5.6018115625 -0.4746931250 -4.8020446640
5.6167943750 -0.9892956250 -4.0085015280
2.2915237500 1.1335471875 -4.8696670560
2.8448128125 1.0323896875 -5.7120120328
3.3878759375 0.8676056250 -4.9108932720
3.3913428125 1.4166484375 -4.0821595520
4.0398096875 0.8780600000 -5.6379045744
4.4729675000 1.2859418750 -4.0960570480
4.5736950000 0.7270225000 -4.9336240320
5.0520834375 1.2808221875 -3.3048711760
5.0699150000 -0.2030003125 -5.6412202864
5.5336700000 0.7346012500 -4.9027723680
6.2307940625 1.2444200000 -6.4595835990
6.2220328125 1.2406037500 -3.2268224240
6.0063475000 0.6923403125 -5.6749421136
2.2575537500 -1.6709531250 -3.9857837200
3.4022809375 -1.8947009375 -4.0308048720
5.0394387500 -2.1140009375 -3.2108008000
6.2253250000 -2.0765909375 -3.2935899840
2.7924737500 -0.0991015625 -2.3752672800
2.7635025000 -1.2450381250 -2.4426435840
3.9911928125 -1.9703809375 -3.2357463520
3.9247846875 -1.4338887500 -2.3668484800
4.4771331250 -0.8529990625 -4.0020255280
5.0937128125 -1.5215415625 -2.4360121600
5.0547978125 -0.9741918750 -3.2366141360
6.1648293750 -1.5217700000 -2.4755416640
2.8695781250 1.5960928125 -3.2238046080
2.7969081250 0.4346762500 -3.2413934240
3.9342043750 0.2855200000 -3.2022265760
3.9345134375 -0.3033650000 -2.4748681600
5.0781387500 0.1757490625 -3.2532056480
5.0284065625 -0.3934365625 -2.4605432480
5.6136500000 0.1614784375 -4.0910057680
3.9580693750 1.4474606250 -3.2485170240
3.9476821875 0.8805459375 -2.4620586320
5.6620518750 1.2774225000 -4.0202230880
6.1754450000 0.1238534375 -3.2767264800
6.1630825000 0.6784728125 -2.4385118960
3.3966775000 2.0041628125 -4.8433744960
3.9566987500 1.9434521875 -5.6195412288
4.5482175000 1.9367737500 -4.7889760960
5.0333246875 1.6580934375 -5.6799972792
5.6068506250 1.8324987500 -4.8635148560
6.1767618750 1.8496450000 -5.7005443320
3.9654062500 1.9726384375 -2.3544016080
5.0776415625 1.8156884375 -2.4373980240
6.1540390625 1.8403059375 -2.5068077920
6.1686456250 -0.3921062500 -2.3749952880
2.8337403125 1.0071540625 -2.4581471280
5.0545828125 0.7377725000 -2.4491066320
2.7957121875 2.1613681250 -2.4428119600
5.0983621875 -0.8880171875 -6.3677544371
2.8495428125 1.6353840625 -6.4245409269
2.8231246875 2.2062628125 -5.6332017032
5.0904609375 -2.0773434375 -6.4578783387
3.9392703125 -0.8543293750 -6.4597505503
5.0224268750 0.2401684375 -6.4253855268
5.0718231250 1.1752437500 -6.4143164886
-5.5860735625 6.5877478125 -4.9051684880
-3.3309681250 6.3998378125 -3.9973628080
-4.9833506250 6.7002062500 -2.3880509040
-6.1933934688 6.5285690625 -5.6270870640
-3.8677559375 2.9312696875 -3.2267835680
-6.0899798125 2.5644662500 -3.2251775200
-5.5438905625 2.7114053125 -4.0422414880
-4.4932043750 2.3124593750 -4.8769072240
-4.4073253125 2.8744559375 -4.0615658720
-3.8928303125 2.3843768750 -5.6130289632
-3.3011637500 2.4669771875 -4.8817901280
-2.8124821875 3.1290965625 -6.4306853557
-2.7220746875 2.5569009375 -5.6561643040
-6.6732811281 2.4829140625 -4.0128145440
-6.1370916875 3.1175806250 -5.6995185336
-5.6079296563 3.2799593750 -4.8260317680
-5.5526531563 3.8339068750 -3.9962877920
-5.0678590625 3.3141175000 -5.6756544736
-4.5176471875 3.4396909375 -4.8343210480
-3.8373603125 4.0315725000 -3.2384921760
-3.9671665625 3.5070934375 -5.6579646320
-3.3898243750 3.5917228125 -4.8802358880
-2.7532228125 4.2376096875 -6.4615130585
-3.2897015625 4.1536118750 -4.0529139360
-2.7913853125 3.6996125000 -5.6193391776
-6.0917696875 5.4153393750 -5.6168148328
-6.0988539375 4.2660165625 -5.6931992528
-5.6241782813 4.9214306250 -4.0162338720
-5.5585320625 4.3796709375 -4.8474155200
-4.4199565625 4.0113087500 -4.0289656880
-3.8673259375 5.7295753125 -5.7001389344
-4.4698500000 4.5580403125 -4.8521948080
-5.0026871875 4.4255331250 -5.6913341648
-3.3632987500 4.7208625000 -4.8298008000
-3.3348246875 5.2939718750 -4.0404411600
-2.8053334375 4.8031134375 -5.6624550904
-6.6784723031 5.2957456250 -4.8878257600
-6.6763908344 5.8775356250 -4.1036339680
-5.4928831563 5.4690221875 -4.8607560800
-5.6387579688 6.0376971875 -4.0767715200
-4.9449059375 5.5845981250 -5.6991960288
-4.4148771875 5.6591225000 -4.8316658880
-5.0934171875 6.1531656250 -6.4428481903
-4.5235731250 6.1988531250 -4.0191221680
-3.3385871875 5.8669065625 -4.8312643760
-2.7694687500 6.4901512500 -3.2128472160
-2.7920034375 5.8838781250 -5.6700695712
-6.1512454063 3.1581081250 -2.4730419280
-4.9687709375 2.7293175000 -3.2505245840
-3.8877375000 2.3829121875 -2.3886596480
-3.3188071875 3.0362703125 -4.0796598160
-2.7864000000 3.1312196875 -3.2039232880
-6.1455680625 3.7245928125 -3.2622590960
-4.9695906250 3.8576509375 -3.2218618080
-5.0407690625 3.2727837500 -2.4415167600
-3.9278753125 3.4729084375 -2.3954594480
-2.8000928125 3.6988600000 -2.3918069840
-2.7289815625 4.2468143750 -3.2327155840
-6.2085442500 4.8728809375 -3.2433103200
-6.1156669375 4.2918031250 -2.4665270720
-4.4663696875 5.0900040625 -4.0000179680
-5.0544887500 5.0527418750 -3.2425979600
-3.8871865625 5.1703334375 -3.2251127600
-3.9179718750 4.5911771875 -2.4516322720
-2.7569718750 5.3185087500 -3.2650567280
-2.8143096875 4.7901193750 -2.3804221760
-6.1583162188 6.5384725000 -2.3858879200
-6.1728031875 5.9673115625 -3.1808169200
-5.0982143750 6.1734696875 -3.2348526640
-4.9726678125 5.6074284375 -2.4394962480
-3.9459218750 6.3287400000 -3.2673492320
-3.8881406250 5.7655743750 -2.4735211520
-2.7791975000 5.8851546875 -2.4650505440
-2.7408737500 2.5702846875 -2.4280855360
-5.0385518750 4.4523946875 -2.4979227200
-6.0930744688 5.4021303125 -2.3847610960
-3.9045343750 4.6253218750 -5.6697639040
-6.1837816250 4.8559765625 -6.4354728034
-2.2517218750 3.1931665625 -4.0632237280
-2.2441834375 4.9172918750 -4.8286739760
-2.2401253125 6.0128781250 -4.8487884320
-6.6344854531 4.1480353125 -4.8448769280
-6.6774251188 3.0447762500 -4.8304224960
-3.8586318750 2.9407162500 -6.4388344950
-6.1499433125 5.9681312500 -6.4365002856
-5.0591650000 4.9907412500 -6.4609956261
1.7023162500 2.3022334375 -2.4889858400
-2.2032393750 6.5718646875 -4.0112084960
-2.1929731250 4.3131687500 -4.1142416560
-2.1774528125 5.4740478125 -4.0197568160
-1.6108471875 6.6261521875 -3.2253847520
1.1563103125 2.4152831250 -4.8680092000
-2.1579415625 2.5978450000 -4.8459908000
-1.6191246875 2.7049150000 -5.7015092560
-1.0915146875 2.6690368750 -4.8273140160
-0.5424315625 4.2749793750 -6.4406796370
-1.1224612500 3.2573709375 -4.0542091360
-0.5155296875 2.6233090625 -5.6344981984
0.0402184375 2.5853346875 -4.8128725360
0.0218090625 3.1445765625 -4.0162338720
0.5672506250 2.4106203125 -5.6722001752
1.6875350000 2.3154425000 -5.7162097760
1.1024528125 3.4515159375 -4.8807280640
-2.2054700000 3.7301559375 -4.8934210240
-1.6129837500 3.8087787500 -5.6374745680
-1.0566040625 3.8205768750 -4.8245163840
-1.1102196875 4.3988865625 -4.0332009920
-0.5364115625 3.6804237500 -5.6962494488
0.6203690625 4.1807153125 -6.4267887465
0.0223600000 4.2172921875 -3.9699563760
0.0288234375 3.6915634375 -4.8576994080
0.5726121875 3.5908225000 -5.7157253712
1.1465278125 4.0024400000 -4.0681972960
1.7191534375 3.4878240625 -5.6369875728
-1.6109950000 5.4800946875 -6.4257538817
-1.7079868750 4.8998096875 -5.6621947552
-1.1121143750 4.9202750000 -4.9045338400
-1.1347296875 5.9837321875 -4.8752752720
-0.5390184375 4.8646303125 -5.6963414080
-0.0099303125 4.7245712500 -4.8754436480
0.0387537500 5.2946840625 -4.0820818400
0.5944078125 4.7600731250 -5.6443676224
1.1287903125 4.5905590625 -4.8196852880
1.1399837500 5.1907584375 -4.0956555360
1.7118031250 4.5245540625 -5.5933898456
-1.6845250000 6.0774184375 -5.6910582872
-1.0930331250 6.5562906250 -4.0857472560
-0.5218050000 6.0162375000 -5.6174067392
0.0499740625 5.8853159375 -4.8275860080
0.0273050000 6.4844268750 -4.0974299600
0.6216456250 5.7945993750 -5.5919184984
1.2496606250 5.7867384375 -4.8220425520
1.1547515625 6.3213359375 -4.0048361120
1.7332628125 5.5927681250 -5.6956225720
-1.6898865625 3.2598165625 -3.2481414160
-1.6529200000 2.6862637500 -2.4499614640
-0.5687556250 3.1498037500 -3.2439320160
-0.5712281250 2.6097640625 -2.3986974480
1.1689146875 2.9375987500 -3.9686870800
0.5973237500 2.4442275000 -2.4147708800
1.7644378125 2.9127393750 -3.2128601680
-1.6807759375 4.3485362500 -3.2202298560
-1.6245400000 3.7899796875 -2.3955501120
-0.5630984375 4.2880540625 -3.2162147360
-0.5065265625 3.7134665625 -2.4378642960
0.6201137500 4.1879581250 -3.2229368240
0.5645228125 3.5934831250 -2.4873797920
1.7176887500 4.0339509375 -3.2361349120
1.6634953125 3.4756093750 -2.4172835680
-1.0402909375 5.4510696875 -4.0269192720
-1.6135615625 5.4785225000 -3.2352800800
-0.4844890625 5.4853084375 -3.2008536640
-0.5528456250 4.8882265625 -2.4816550080
0.5859959375 5.2767853125 -3.2271591760
0.5584221875 4.7267212500 -2.3804739840
1.6467925000 5.0653865625 -3.2466001280
1.7418359375 4.5693412500 -2.3632996320
-1.7030553125 6.0395112500 -2.4492102480
-0.5282684375 6.5457825000 -3.2430124240
-0.5591612500 6.0258856250 -2.3571862880
0.5458850000 6.3412637500 -3.2462245200
0.6674675000 5.8118396875 -2.3842559680
1.7276728125 6.2065393750 -3.2689423280
1.7523171875 5.6393156250 -2.4421384560
0.5761059375 2.9916309375 -3.2274441200
-1.6781690625 4.9176950000 -2.4255339920
0.6023090625 2.9845225000 -6.4412690825
1.7354128125 2.9168512500 -6.4307859927
-0.5212943750 5.4561490625 -6.4262074607
0.5516228125 6.3299762500 -6.4597756772
1.6508103125 6.1986112500 -6.4102736513
2.2780325000 2.7252996875 -4.0604131440
2.2549200000 3.9306300000 -4.1016393600
2.3000162500 4.5437293750 -4.8169006080
6.6727400000 6.4609112500 -4.8548111120
2.7842096875 6.6192990625 -5.6632451624
3.3765346875 6.5133981250 -4.8650820480
3.9154187500 6.4380943750 -5.6707081048
4.4720671875 6.3383478125 -4.8337511600
5.0343862500 6.3120640625 -5.6520105976
5.5699915625 6.3063800000 -4.8023425600
6.1153793750 6.3431315625 -5.6669895856
2.8304615625 6.5176175000 -2.5146308000
3.9510012500 6.4467078125 -2.4572275360
4.9936437500 6.2906850000 -2.4634056400
6.1065106250 6.3340343750 -2.4072587200
6.7100693750 3.5945178125 -4.0105997520
6.7029206250 4.7366650000 -4.0879750000
3.3604365625 2.5942437500 -4.1108482320
5.0452034375 2.3354375000 -6.3901457252