ITEM: TIMESTEP
55000
# source: voids-relax.55000.cfg
ITEM: NUMBER OF ATOMS
2298
ITEM: BOX BOUNDS pp pp pp
-6.7187500000 6.7187500000
-6.7187500000 6.7187500000
-6.4760000000 6.4760000000
ITEM: ATOMS x y z
-6.1341179688 -6.5579797188 -6.4390212629
-6.6918442281 -6.5816646563 -4.0884801280
-5.0753840625 -6.4248584375 -6.4706905866
-5.6293450000 -6.4729015313 -4.0308048720
-4.4782618750 -6.3159165938 -4.0412959920
-3.2901987500 -6.2264698750 -4.0650629120
-2.8291581250 -6.6120710313 -5.6466847352
-6.7022025250 -5.4519874688 -4.0345609520
-6.1860082188 -5.9974438125 -5.6419818640
-5.5661995000 -5.9685303438 -4.9290649280
-5.0257056250 -5.3111046875 -6.4502632103
-5.5930019375 -5.4199820313 -4.0937645440
-4.9804346875 -5.8675327500 -5.6467041632
-4.4140843750 -5.7653996875 -4.8542541760
-3.9856296875 -5.1337028125 -6.4545071922
-4.5342290625 -5.2012800000 -4.0606203760
-3.8526790625 -5.7056081875 -5.6933909424
-3.3472140625 -5.6141982500 -4.7879140320
-3.3995531250 -5.0296428125 -4.0341335360
-2.8200743750 -5.4951742500 -5.6951744328
-6.1667576563 -4.8673581250 -5.7043561056
-5.6609446250 -4.8283490625 -4.8357328160
-5.5809471563 -4.2545946875 -4.0686894720
-5.0852068750 -4.7454396875 -5.6306657016
-4.4770256250 -4.6605281250 -4.9150249600
-3.9010943750 -4.0241146875 -6.4381362527
-4.4533218750 -4.1108806250 -4.0892183920
-3.8704703125 -4.5741787500 -5.6299041240
-3.2963934375 -4.4912156250 -4.8660016400
-3.4043906250 -3.9180390625 -4.0719533760
-2.7324753125 -4.4202925000 -5.6841561664
-6.7162881291 -3.8286931250 -4.8594608800
-6.1597150625 -3.7452865625 -5.6888512664
-5.6242723438 -3.6770509375 -4.8402660160
-5.0775743750 -3.0619628125 -6.4540639747
-5.6181246875 -3.1291234375 -3.9931275040
-5.0737312500 -3.6705203125 -5.7150881328
-4.5562396875 -3.5149678125 -4.8364581280
-4.4569231250 -2.9581043750 -4.0196272960
-3.9872959375 -3.4533434375 -5.6388138048
-3.3963818750 -3.3693456250 -4.8877350960
-3.3280118750 -2.7967065625 -4.1004607280
-2.8089481250 -3.2898359375 -5.6173031232
-6.1854196563 -6.5670607813 -3.1991699040
-5.0411721875 -6.4706211875 -3.2679709280
-3.8774846875 -6.2358156563 -3.3004156880
-2.7778940625 -6.0124427500 -3.2045579360
-2.7901893750 -6.6282538125 -2.4780025440
-6.1434556875 -5.4186866563 -3.2289595040
-6.1212878438 -5.9869746563 -2.4357272160
-5.0715812500 -5.3041440625 -3.2075628000
-4.9966537500 -5.9014758750 -2.4714488320
-3.9508265625 -5.1589518750 -3.2571689600
-3.9232528125 -5.7013915000 -2.4229565440
-2.7960346875 -4.9454434375 -3.3073191040
-2.8271559375 -5.4644010313 -2.4007568160
-6.1376762188 -4.3283531250 -3.2716363440
-6.1886110625 -4.8590806250 -2.4103153920
-5.0336875000 -4.2062868750 -3.2510426640
-5.0151840625 -4.7389090625 -2.4027773280
-3.9555028125 -4.0060278125 -3.1952713520
-3.8711018750 -4.5910025000 -2.4622011040
-2.8733406250 -3.8508784375 -3.2001154000
-2.7705437500 -4.4306125000 -2.4180088800
-6.2143613438 -3.1864478125 -3.2285191360
-6.1642488750 -3.7672434375 -2.4711768400
-5.0204918750 -3.1115875000 -3.2485170240
-5.0673215625 -3.6474212500 -2.4115846880
-3.8680381250 -2.9055100000 -3.2446443760
-3.9281171875 -3.4334693750 -2.3982829840
-2.8211225000 -2.7304059375 -3.2294775840
-2.7244665625 -3.2687659375 -2.4045128960
-2.2466828125 -2.6596575000 -4.0648427280
-6.2053044688 -2.6144000000 -5.6370523328
-5.6019701250 -2.6155287500 -4.8954674400
-5.0335531250 -2.4927503125 -5.6884484592
-4.4907721875 -2.4170837500 -4.8557954640
-3.9358706250 -2.3576496875 -5.7332028000
-6.1335522500 -2.6118737500 -2.4482777040
-5.0446390625 -2.5200015625 -2.4923015520
-3.9428312500 -2.3493856250 -2.4284093360
-2.2692981250 -5.4810944375 -4.8516637760
-2.3100675000 -3.7480681250 -3.9915862160
-6.1005242188 -5.4589615313 -6.4720712957
-2.8597150000 -3.8418215625 -6.4532566766
-6.1812392500 -3.1639265625 -6.4752980430
-2.7619034375 -2.7486406250 -6.4503660492
-2.2156690625 -3.2258062500 -4.8808834880
-2.2171740625 -6.5663445625 -4.9332095680
-1.6803728125 -5.9107020625 -6.4191992630
-2.2022046875 -6.0372201563 -4.0309343920
-1.6238009375 -6.5070502500 -5.6828790992
-1.0993084375 -6.3372781875 -4.8368725920
-1.1273793750 -5.7753541875 -4.0348458960
-0.5397037500 -6.3519089375 -5.6719268880
0.0070950000 -6.2771104375 -4.8173798320
0.0092853125 -5.6926893750 -4.0537169600
0.5292896875 -6.3042797188 -5.6742841520
1.1059196875 -6.3643426563 -4.8818807920
1.1461246875 -5.8110845000 -4.0523699520
1.6773896875 -6.4118388438 -5.6781490288
-2.2041800000 -4.9157600000 -4.0513596960
-1.7233190625 -5.3257112500 -5.6658549904
-1.1355359375 -5.2501790625 -4.9034588240
-0.5354306250 -4.6257787500 -6.4292207435
-1.0849840625 -4.7071965625 -4.0296780480
-0.5651678125 -5.2265828125 -5.6843543320
-0.0194306250 -5.1483765625 -4.8735785600
0.5499968750 -4.6253084375 -6.4715709859
-0.0057243750 -4.5819725000 -4.0528621280
0.5634478125 -5.1930562500 -5.6632697712
1.1102062500 -5.2450593750 -4.8437501040
1.1072231250 -4.6505440625 -4.1028438960
1.6792978125 -5.3149746875 -5.6395106224
-2.2222265625 -4.3085328125 -4.7836657760
-1.7009053125 -4.2257712500 -5.7035336536
-1.1487046875 -4.1528056250 -4.8543966480
-1.1223940625 -3.5955659375 -4.0335377440
-0.5943540625 -4.0447681250 -5.6700358960
-0.0229646875 -4.0414356250 -4.8871911120
0.0118787500 -3.4763081250 -4.0690909840
0.5698978125 -4.0852150000 -5.6330100136
1.1405481250 -4.0702053125 -4.8468067760
1.6300493750 -3.6613021875 -6.4418248528
1.1084593750 -3.5077115625 -4.0382393200
1.6912706250 -4.2438446875 -5.6570903720
-1.7324834375 -2.5421331250 -6.4361911214
-1.6391196875 -3.1144631250 -5.6547007280
-1.0975750000 -3.0183850000 -4.8201256560
-1.1859937500 -2.4577725000 -4.0450520720
-0.5586237500 -2.9412134375 -5.6700618000
0.5297734375 -2.9671612500 -5.6743696352
-0.0029159375 -2.8930265625 -4.8319767360
1.1156081250 -2.9713403125 -4.8897297040
1.1139015625 -2.4489575000 -3.9918064000
1.7116687500 -2.4673265625 -3.2357981600
1.6741781250 -3.0621375000 -5.7083466168
-1.6684000000 -5.9095115000 -3.1856221120
-1.6868900000 -6.5034409375 -2.4309608800
-0.5507225000 -5.7979977188 -3.2559644240
-0.5571725000 -6.3307811563 -2.3984384080
0.5727868750 -5.7267010313 -3.2629196480
0.5712953125 -6.2850654375 -2.4695060320
1.7206181250 -5.8645402188 -3.2461727120
1.6398721875 -6.4393091250 -2.4542226720
-1.6714368750 -4.7507071875 -3.2360312960
-1.6789887500 -5.3069659375 -2.4401697520
-0.5393543750 -4.6351984375 -3.2008795680
-0.5440978125 -5.2245806250 -2.4502075520
0.5738887500 -4.6177700000 -3.2475974320
0.5639450000 -5.1846712500 -2.4179441200
1.6327368750 -4.7897834375 -3.2323140720
1.6907600000 -5.3378184375 -2.3950061280
-1.6901821875 -3.6349781250 -3.2832413360
-1.7342571875 -4.1787803125 -2.4511789520
-0.5518512500 -3.4838465625 -3.2530113680
-0.6343037500 -4.0546312500 -2.4499226080
0.5452534375 -3.5419368750 -3.2217711440
0.4964215625 -4.0951721875 -2.3811863440
1.6574618750 -3.6447203125 -3.2098941600
1.6911900000 -4.2129518750 -2.4465550880
-1.7100428125 -3.0836778125 -2.4382528560
-0.0307450000 -2.3320378125 -4.0278906720
-0.5823409375 -2.9576475000 -2.4443791520
0.5335628125 -2.3672978125 -3.2289595040
0.5403084375 -2.9583059375 -2.4660608000
2.2057790625 -3.2034865625 -4.8423771920
-1.7017115625 -2.5019415625 -3.1501983920
-0.5900137500 -2.3803321875 -3.2644479840
1.6462281250 -3.0322659375 -2.4696355520
2.2215815625 -6.5539108438 -4.8670118960
2.2089368750 -4.8106518750 -4.0474870480
2.2211918750 -3.7462406250 -3.9843849040
6.7000315625 -5.9994957188 -4.8643567360
6.6933934375 -4.9006965625 -4.8791220160
2.2560756250 -5.9612405000 -4.1060559920
2.2470725000 -2.6283481250 -4.0683786240
6.6898056250 -4.3611540625 -4.0146407760
6.7051512500 -3.2588087500 -4.0700753360
2.8145650000 -6.6024737000 -5.6397916808
3.3832668750 -6.6773928688 -4.8433485920
3.8990653125 -6.2431901563 -6.4479664322
3.3429006250 -6.1087869375 -4.0638065680
4.4678075000 -6.3085662813 -4.0001733920
5.6297615625 -6.5140632813 -4.0679771120
2.2610206250 -5.3749193750 -4.8532568720
2.8116490625 -5.5296172500 -5.6461459320
3.4191181250 -5.5543852500 -4.8922553440
3.3282537500 -5.0379471875 -3.9955495280
3.9707946875 -5.6612536875 -5.6959748664
4.5100415625 -5.7694309375 -4.8542541760
4.4876546875 -5.2012531250 -4.0575896080
5.0755990625 -5.8215469375 -5.7014354296
5.5965306250 -5.9222851875 -4.8181958080
5.6160821875 -5.3337065625 -4.0657364160
6.1298515625 -6.0206503750 -5.6869550936
2.2830312500 -4.2607087500 -4.8844841440
2.8275187500 -4.3682759375 -5.7163626096
3.3490012500 -4.4943331250 -4.8411078960
3.3936943750 -3.9245965625 -4.0579522640
3.9118981250 -4.5109284375 -5.6967455104
4.4421553125 -4.6233868750 -4.8274176320
5.0640025000 -4.1742518750 -6.4540968728
4.5035915625 -4.0341793750 -4.0900991280
4.9855275000 -4.7386806250 -5.6586847632
5.5849878125 -4.7864912500 -4.9048576400
6.1315984375 -4.2910237500 -6.4428954651
5.5757696875 -4.2570806250 -4.0414514160
6.1495509375 -4.8896778125 -5.6946939136
2.7606268750 -3.2159565625 -5.6894923904
3.3000618750 -3.3490818750 -4.8260447200
3.3475500000 -2.7473775000 -4.0954353520
3.8371990625 -3.4408734375 -5.6357014392
4.4611021875 -3.4783640625 -4.9064248320
4.4152534375 -2.9506734375 -4.0241086880
5.0253562500 -3.5975278125 -5.6612324216
5.6125481250 -3.7065193750 -4.8836681680
5.5573334375 -3.1618840625 -4.0571362880
6.1751762500 -3.7074734375 -5.6810256680
2.7759590625 -6.0803827500 -3.2283378080
2.7901221875 -6.6173866375 -2.3821706960
3.8801050000 -6.2380986875 -3.2419762640
5.0759350000 -6.3911786875 -3.2720378560
6.1857515625 -6.5543220313 -3.2437895440
2.7608418750 -4.9254484375 -3.2272109840
2.8446515625 -5.4985793125 -2.4545853280
3.9444975000 -5.0641100000 -3.2630491680
3.9244353125 -5.6408018125 -2.4848282480
5.0599040625 -5.2935150000 -3.2469498320
4.9909831250 -5.8487605625 -2.4260650240
6.1590915625 -5.4795074688 -3.2385180800
6.1434771875 -5.9981640625 -2.3924804880
2.8479975000 -3.7647978125 -3.2663519280
2.7800843750 -4.3297371875 -2.4801914320
3.9508668750 -3.9925096875 -3.2289465520
3.8573956250 -4.5329121875 -2.3887762160
5.0120800000 -4.1884284375 -3.2057754240
5.0343459375 -4.7537306250 -2.3967805520
6.1336543750 -4.2877987500 -3.2232865280
6.1712793750 -4.8888312500 -2.4835200960
2.7953090625 -2.7016496875 -3.2238564160
2.7388581250 -3.2439468750 -2.3741145520
3.8597203125 -2.8875709375 -3.1957246720
3.9141556250 -3.4436818750 -2.3836213200
5.0036278125 -3.0286915625 -3.2414581840
5.0630887500 -3.6056171875 -2.4546630400
6.1200018750 -3.1641281250 -3.2685408160
6.1657565625 -3.7381646875 -2.4327223520
6.6876287500 -2.6719931250 -4.8262130960
3.9377518750 -2.2953400000 -5.6649418744
4.4973834375 -2.4078790625 -4.8692655440
5.0620406250 -2.4406800000 -5.7114304880
5.5678684375 -2.5729721875 -4.8108908800
6.1208887500 -2.6320300000 -5.6583441256
5.0176296875 -2.4754831250 -2.4394185360
6.1567400000 -2.6449300000 -2.3931280880
3.9391359375 -2.2968181250 -2.4666695440
2.7590278125 -4.9691203125 -6.4461351489
3.9126103125 -2.8807446875 -6.4405078934
4.9821546875 -3.0344428125 -6.4443969905
-2.8746709375 -2.1752221875 -5.6542253896
-5.0712184375 -1.9227046875 -6.4693675657
-5.5814524063 -2.0708128125 -4.0630424000
-4.4865125000 -1.8703118750 -3.9897858880
-3.4320315625 -2.2081843750 -4.8224699680
-3.3220725000 -1.6402753125 -4.0085533360
-6.1474775313 -1.5260431250 -5.6737116736
-5.5994720938 -1.4901381250 -4.8272881120
-5.5898185938 -0.9053784375 -4.0755799360
-5.0552412500 -1.3559646875 -5.6566396424
-4.4590059375 -1.3569187500 -4.8856757280
-4.4781543750 -0.7960240625 -4.0916533680
-3.9158353125 -1.1794631250 -5.6853555216
-3.3333868750 -1.1289784375 -4.8923978160
-2.8387390625 -0.4467431250 -6.4538263055
-3.4160006250 -0.5906453125 -4.0366073680
-2.7908343750 -1.0646262500 -5.7536514176
-6.1313162500 0.1651737500 -6.4563981842
-6.7098270028 0.1651334375 -4.0456219600
-6.1709085000 -0.4236171875 -5.6739914368
-5.6141404688 -0.3422128125 -4.8654965120
-5.6268321875 0.2118690625 -4.0323591120
-5.0306371875 -0.2849018750 -5.6713505240
-4.4950453125 -0.1960262500 -4.8310830480
-4.4724031250 0.3792331250 -4.0635475280
-3.9288025000 -0.0623500000 -5.6263500952
-3.3267084375 -0.0538843750 -4.8814404240
-3.3054771875 0.4934921875 -4.0612679760
-2.7841559375 0.1267021875 -5.6743631592
-6.1831433438 0.7150228125 -5.6558741792
-5.5942287813 0.7514653125 -4.8830982800
-5.6172499063 1.2922843750 -4.0635604800
-5.0153318750 0.8517225000 -5.6324841624
-4.4507015625 0.9581743750 -4.8262649040
-3.9294878125 1.5947759375 -6.4716674394
-4.4943465625 1.5349790625 -4.0395733760
-3.9038221875 1.0154987500 -5.6877762504
-3.3818290625 1.0913803125 -4.8072513680
-2.8320606250 1.2126403125 -5.6540544232
-6.1688995938 -2.0547012500 -3.2655748080
-5.0489256250 -1.9088909375 -3.1986000160
-3.8761409375 -1.7918100000 -3.2378057200
-2.7269928125 -1.6671234375 -3.2263432000
-2.7629112500 -2.1872353125 -2.3548549280
-6.1450184688 -1.0085515625 -3.2699007760
-6.1887091563 -1.5327350000 -2.3748528160
-5.0409437500 -0.8054034375 -3.2419762640
-5.0463187500 -1.3410625000 -2.4113645040
-3.9776478125 -0.6146984375 -3.1996491280
-3.8832896875 -1.2174643750 -2.4716690160
-2.8513031250 -0.5158656250 -3.2229497760
-2.7719412500 -1.0966478125 -2.4354811280
-6.1928761250 0.1181021875 -3.1983280240
-6.1807313125 -0.4678265625 -2.4450397040
-5.0419246875 0.2666268750 -3.2766228640
-5.0781521875 -0.2464975000 -2.3887891680
-3.8982590625 0.4895953125 -3.2796277280
-3.9511893750 -0.0483615625 -2.4107428080
-6.1670022188 1.3024565625 -3.2282471440
-6.1362424375 0.7222253125 -2.4783652000
-5.0512368750 1.4088143750 -3.2516125520
-5.0303818750 0.8346434375 -2.4704515280
-2.7249637500 1.7499521875 -3.2736957120
-3.9600178125 1.0099893750 -2.4196537840
-2.7857415625 0.6844390625 -3.1987036320
-2.8370056250 1.2313050000 -2.3776115920
-2.2747403125 -0.9434200000 -4.8559638400
-2.2680887500 -0.4331578125 -3.9670551280
-2.2631840625 1.2067143750 -4.8543318880
-6.7016921688 1.7893375000 -4.8877221440
-6.1218764063 1.8450493750 -5.6932251568
-5.6107730313 1.8913281250 -4.8143749680
-5.0566521875 1.9462203125 -5.6642722560
-4.4846715625 2.0725865625 -4.8688251760
-3.9138196875 2.1338078125 -5.6359540032
-3.3300006250 2.2174965625 -4.8554975680
-3.3244375000 1.6739765625 -4.0341723920
-6.1305664375 1.8610937500 -2.4085668720
-4.9971912500 1.9598459375 -2.4186694320
-3.8946443750 1.5605371875 -3.2728667840
-3.8771756250 2.1140143750 -2.4761892640
-2.8132481250 0.0696465625 -2.4778341680
-2.2938215625 -2.1018400000 -4.8693821120
-6.7132500581 -1.5101600000 -4.8558084160
-3.9460831250 -1.7505434375 -6.4662619481
-5.0667303125 0.2964312500 -6.4510391646
-6.1342510000 1.2764146875 -6.4705881493
-2.2093534375 -1.5128743750 -4.0892702000
-2.2000009375 0.0973412500 -4.8727237280
1.6221212500 -1.9294100000 -2.3631960160
-1.6958393750 0.7706137500 -3.2205018480
-1.6987956250 -1.9975246875 -5.5930142376
-1.1413006250 -1.3219006250 -4.0288879760
-0.5647646875 -1.8573715625 -5.6575916144
-0.5616471875 -1.2289265625 -3.2150749600
-1.1040384375 -1.8843675000 -4.8345930400
-0.0018946875 -1.7631478125 -4.8407452400
-0.0253296875 -1.2046853125 -4.0195625360
0.5202865625 -1.8407628125 -5.7161709200
1.0616700000 -1.9005731250 -4.8596810640
1.1087953125 -1.3362518750 -4.0631848720
1.6296328125 -1.9124250000 -5.6874369080
-1.7079331250 -0.9154700000 -5.6856845024
-1.1599115625 -0.7667168750 -4.8433874480
-1.1015256250 -0.2093562500 -4.0342760080
-0.6106671875 -0.7345071875 -5.6580527056
-0.0316184375 -0.6720362500 -4.8699908560
0.5335628125 -0.6942618750 -5.6627685288
0.0041387500 -0.0999346875 -4.0710855920
0.5610021875 -1.2507625000 -6.4599773398
1.1154603125 -0.7769025000 -4.8954674400
1.6220943750 -0.2457046875 -6.4686818480
1.0664806250 -0.2253737500 -4.0791417360
1.6908137500 -0.8316603125 -5.6659858056
-2.2204125000 0.6438443750 -4.0447541760
-1.6814209375 0.2144759375 -5.7371376176
-1.1530450000 0.3461096875 -4.8524279440
-0.5775303125 0.9707518750 -6.4406905166
-1.0903590625 0.8963484375 -3.9692569680
-0.5911021875 0.3660912500 -5.6839994472
-0.0301671875 0.4577350000 -4.8802488400
-0.0814446875 1.0166543750 -4.0496370800
0.5601287500 0.4305106250 -5.6105240464
1.1578287500 0.3564431250 -4.8655612720
1.7131468750 0.3026796875 -5.6590474192
1.0451821875 0.8793096875 -4.0416845520
-1.6623396875 1.9407512500 -6.4711427410
-2.1545821875 1.7741396875 -4.0881304240
-1.7171109375 1.3962637500 -5.6521090328
-1.1229718750 1.3925550000 -4.9135354800
-0.5788068750 2.0715787500 -6.4537914646
-1.0869862500 1.9463278125 -4.0561907920
-0.5229875000 1.5331515625 -5.6330488696
0.0488990625 1.5809890625 -4.8365876480
-0.0497590625 2.1418971875 -4.0072840400
0.5891268750 1.5151318750 -5.6853050088
1.1137000000 1.4934034375 -4.7862820800
1.6300762500 1.4045546875 -5.6970369304
-1.6790425000 -1.5471265625 -3.1570759040
-0.5920428125 -0.6213634375 -2.4711379840
0.5619293750 -1.2235784375 -3.2382590400
0.5300421875 -1.8044009375 -2.4555178720
1.6714503125 -1.4012221875 -3.2350339920
-1.7056487500 -0.9376150000 -2.4207028960
-0.5449175000 -0.0339834375 -3.2495143280
-0.5960337500 0.4651390625 -2.3885560320
0.5232562500 -0.1132512500 -3.1987036320
1.6140856250 -0.2845928125 -3.2278844880
-1.6271603125 1.3614203125 -2.4169079600
-1.6687493750 -0.3996850000 -3.2523508160
-0.5746815625 1.1352806250 -2.9839724240
-1.6984596875 0.1626475000 -2.4599474560
0.4512178125 1.5368334375 -2.4065852160
0.4848518750 0.9921443750 -3.2585030160
1.6135481250 0.8848459375 -3.2505763920
1.6803728125 0.2921178125 -2.4768109600
-1.6837321875 1.9412484375 -3.2102050080
0.5932656250 2.0701543750 -3.3068398800
1.1519700000 2.0777465625 -4.0567477280
1.6016693750 1.4271834375 -2.4246014480
2.1645796875 -2.0589206250 -4.8492547040
2.2115303125 -1.4648756250 -4.1093587520
2.1613412500 -0.3694640625 -4.0261680560
2.1870337500 1.3151415625 -4.8300209840
1.7065490625 1.9749093750 -3.2405904000
-0.5956171875 -1.8269356250 -2.4104578640
0.5593628125 -0.7000400000 -2.3945787120
0.5642271875 0.4308062500 -2.4039041520
1.6990375000 -0.8495321875 -2.4104578640
-0.5791562500 2.0271812500 -3.1022500880
0.5847731250 -0.1105771875 -6.4488836928
2.2069884375 0.7583856250 -4.0016110640
-1.6917946875 0.8290803125 -6.4365757958
6.7135496875 -2.0910362500 -4.0790251680
6.7031356250 -0.3937456250 -4.8562617360
2.2657775000 0.1956231250 -4.8198018560
6.7000450000 -0.9554062500 -4.0541832320
6.6879512500 0.7204650000 -4.8691101200
6.7028803125 1.2592684375 -4.0130476800
2.7705706250 -1.5928812500 -6.4465637306
2.7401481250 -2.1418837500 -5.6166503424
3.3585418750 -2.2009818750 -4.9136520480
3.2732809375 -1.6752262500 -4.0334600320
4.4331387500 -1.8610534375 -4.0256370240
5.6001453125 -1.9875137500 -4.0460623280
2.2709643750 -0.9005946875 -4.8919833520
2.7720890625 -0.4588234375 -3.2784490960
2.8449203125 -1.0219621875 -5.6706796104
3.3894884375 -1.1177715625 -4.8467549680
3.3433709375 -0.5605050000 -4.0271783120
3.9499665625 -1.1510293750 -5.7135947672
4.4523812500 -1.2937625000 -4.8027958800
5.0706406250 -0.7837421875 -6.4757307953
4.5033228125 -0.6967881250 -4.0612938800
4.9950412500 -1.3485740625 -5.6642929792
5.5677743750 -1.4409837500 -4.8760264880
6.1211037500 -0.9835981250 -6.4471942339
5.5946762500 -0.8984178125 -4.0369441200
6.1549528125 -1.5434178125 -5.6351522744
2.7865343750 0.1138693750 -5.7193985584
3.3058937500 0.0204384375 -4.8081321040
3.9501009375 0.4986387500 -6.4412832002
3.3885075000 0.6027256250 -4.0419306400
3.8459871875 -0.0735031250 -5.6581757496
4.4218781250 -0.1415640625 -4.8750680400
4.4657784375 0.4123028125 -4.0588200480
5.0078875000 -0.2377900000 -5.6327237744
5.5871378125 -0.3365287500 -4.8690453600
5.5716309375 0.2104850000 -4.0652701440
6.1505184375 -0.3993490625 -5.6702496040
2.7272346875 1.2248550000 -5.6600343616
3.3079900000 1.1382503125 -4.8994696080
3.3390978125 1.6735062500 -4.0584444400
3.9133493750 1.0550856250 -5.6170479688
4.4980687500 0.9668415625 -4.8832796080
4.4418462500 1.5172415625 -4.0723289840
5.0853815625 0.8675518750 -5.6707586176
5.6144293750 0.7975021875 -4.8170819360
6.1825534375 1.3084765625 -6.4602331418
5.5903359375 1.3822350000 -4.0504012480
6.1368525000 0.6965731250 -5.7177199792
2.7279468750 -1.5986325000 -3.2060603680
2.8144843750 -2.1521634375 -2.3899030400
3.8652968750 -1.7208734375 -3.2585936800
5.0283125000 -1.9207025000 -3.2633600160
6.1648025000 -2.1061668750 -3.2364587120
2.7486271875 0.0802487500 -2.4313364880
2.8106681250 -1.0125693750 -2.4579528480
3.9307106250 -0.6251931250 -3.2636579120
3.8897531250 -1.1823925000 -2.4278783040
5.0230718750 -0.7998268750 -3.2148677280
5.0196587500 -1.3739843750 -2.4424622560
6.1623300000 -0.9457850000 -3.2299827120
6.1466081250 -1.5222268750 -2.4757359440
2.7976740625 1.7876981250 -3.1783042320
2.8022025000 0.6379856250 -3.2635024880
3.9250534375 0.4818284375 -3.2008018560
3.8624615625 -0.0871825000 -2.4217908640
5.0301534375 0.3510815625 -3.2369897440
5.0239587500 -0.2136965625 -2.4507644880
6.1325256250 0.1609946875 -3.2605882880
6.1215068750 -0.3829956250 -2.4185399120
2.2838106250 1.8753643750 -4.0481994080
3.9039565625 1.6506087500 -3.2297754800
3.8917284375 1.0739653125 -2.4581730320
5.0087878125 1.4329884375 -3.2580626480
5.0138134375 0.8966843750 -2.3899418960
6.1220175000 1.2493784375 -3.2183518160
6.1619806250 0.7031709375 -2.4034378800
3.9744496875 2.1663803125 -5.6899457104
4.5085096875 2.1119853125 -4.8132092880
5.0183418750 1.9722353125 -5.7049506024
5.5904971875 1.9114709375 -4.8894318080
6.1581240625 1.8527893750 -5.6628086800
3.9349703125 2.1961443750 -2.3905506400
5.0475146875 1.9702734375 -2.4172835680
6.1782534375 1.8376856250 -2.4803598080
2.7546875000 1.1850800000 -2.4530569920
3.8365003125 -1.7410431250 -6.4661028717
4.9758659375 0.2991993750 -6.4700612231
2.8109503125 1.8060806250 -6.4273981381
3.8514831250 1.5936606250 -6.4686852414
-3.9359378125 6.6763412500 -2.4145895520
-2.7708125000 2.3049612500 -5.6680127936
-6.6685300313 6.2801903125 -4.8767777040
-6.1124983750 6.2908328125 -5.6790245840
-5.5571668125 6.3833231250 -4.8440350480
-5.0031440625 6.4281237500 -5.7052018712
-4.4953006250 6.5311625000 -4.7912167920
-3.9672337500 6.6599743750 -5.6714049224
-3.3904828125 6.6618690625 -4.8753659360
-6.1269974375 6.2808756250 -2.4389134080
-5.0436581250 6.4382825000 -2.4153796240
-3.9491065625 2.7063393750 -3.2142460320
-6.2064009688 2.4330609375 -6.4639265083
-5.5997757813 2.4701618750 -4.0540537120
-4.4726987500 2.6417587500 -4.0689355600
-2.8028743750 2.8822228125 -6.4659745692
-6.1459040000 2.9738262500 -5.6435076096
-5.5529299688 3.0143537500 -4.8863362800
-5.0517475000 3.6802221875 -6.4134474094
-5.5902203750 3.5682475000 -4.0327476720
-4.9990053125 3.0639112500 -5.7173210576
-4.4674581250 3.2201893750 -4.8575957920
-4.4956768750 3.7635884375 -4.0266602320
-3.8990921875 3.2199475000 -5.6710552184
-3.3407237500 3.3570503125 -4.8542023680
-3.3552765625 3.9218687500 -4.0763700080
-2.7706243750 3.4243990625 -5.6252530608
-6.6948672625 4.6562818750 -4.0284346560
-6.1951712500 4.0945003125 -5.6344813608
-5.5848373125 4.0929684375 -4.9044949840
-5.5490344375 4.6334784375 -4.0726009760
-5.0174550000 4.2627781250 -5.6555801688
-4.4255465625 4.2923540625 -4.9025780880
-3.9281843750 4.9651428125 -6.4078429494
-4.4630909375 4.8293703125 -4.0345480000
-3.8495212500 4.3464534375 -5.7102661032
-3.3420137500 4.5175128125 -4.8340102000
-3.3625596875 5.0703450000 -4.0177751600
-2.7817103125 4.4925056250 -5.6791022960
-6.6796327656 5.1947628125 -4.8623621280
-6.1183947500 5.1776165625 -5.7021762840
-5.6051682500 5.2385287500 -4.7961515040
-5.5816472500 5.8203993750 -4.0470466800
-5.0783537500 5.3743550000 -5.6628863920
-4.4840803125 5.3679453125 -4.8821398320
-4.4061831250 5.9287325000 -4.0785848000
-3.9300118750 5.5482362500 -5.6548794656
-3.3198687500 5.5822331250 -4.9251663760
-2.7798828125 6.2457231250 -6.4008118267
-3.3288315625 6.1149628125 -4.0306753520
-2.7460203125 5.6194953125 -5.7014548576
-6.1409603438 2.4018590625 -3.2486724480
-5.0387400000 2.5072493750 -3.2382849440
-3.3931703125 2.7878646875 -4.0592992720
-2.8260406250 2.8378253125 -3.2701080080
-6.1541385000 3.5162175000 -3.2086378160
-6.1831231875 2.9507675000 -2.4126985600
-5.0322496875 3.6236906250 -3.1967737840
-5.0366975000 3.0584018750 -2.4136181520
-3.9067515625 3.7950993750 -3.2490480560
-3.8643831250 3.2692362500 -2.3981275600
-2.8218884375 3.9884381250 -3.2228850160
-2.7364662500 3.4073334375 -2.4722389040
-6.1156400625 4.6429518750 -3.2603681040
-6.1897519063 4.0984912500 -2.4409727760
-5.0227493750 4.8148578125 -3.2090393280
-5.0380412500 4.2143225000 -2.4698168800
-3.8992400000 4.9129246875 -3.2064748320
-3.9136584375 4.3501353125 -2.4095382720
-2.7645909375 5.0715409375 -3.2490869120
-2.7630053125 4.5387440625 -2.3884135600
-6.1376372500 5.7486834375 -3.2772834160
-6.1608989063 5.2023415625 -2.4311422080
-4.9914803125 5.8948565625 -3.2875154960
-5.0518684375 5.3778890625 -2.4053547760
-3.9029487500 6.1189403125 -3.2039491920
-3.9068590625 5.5047659375 -2.4831574400
-2.7818581250 6.2071709375 -3.1874742480
-2.7947581250 5.6196700000 -2.4182938240
-2.2566400000 2.9594884375 -4.0326311040
-2.2590050000 4.0717506250 -4.0496500320
-2.2513859375 6.3594850000 -4.0173736480
-2.8164059375 2.2950309375 -2.4211821200
-2.2430278125 2.3862043750 -4.8078471600
-6.7061799175 2.8956200000 -4.8474802800
-6.6746909906 3.4732309375 -4.0889204960
-6.1148580000 3.5365081250 -6.4673267062
-2.2170531250 5.2217184375 -4.0724455520
-2.2325868750 5.8106840625 -4.8395795600
1.0806571875 2.6529118750 -4.8408747600
-1.6901687500 2.5084587500 -5.6638124600
-1.1320287500 2.5110118750 -4.8609374080
-1.0632287500 3.0468590625 -4.0293542480
-0.5775303125 2.6672765625 -5.6637995080
0.0077265625 2.6604906250 -4.8783319440
0.6123065625 3.2285878125 -6.4527521962
0.0580365625 3.2029356250 -4.0201194720
0.5451593750 2.6313043750 -5.7057277224
1.6324009375 2.4930728125 -5.6462132824
1.6896984375 3.0858681250 -6.4266716604
1.1428728125 3.7403281250 -4.9321863600
-2.1793878125 3.5108156250 -4.8566243920
-1.6277246875 3.6213121875 -5.6770869648
-1.1035412500 3.6488590625 -4.7841579520
-1.1162800000 4.2461828125 -4.0336413600
-0.5800968750 3.7593287500 -5.6920517056
0.5707175000 4.3480659375 -6.4414283921
0.0594743750 4.3154396875 -4.0498443120
-0.0280709375 3.7593018750 -4.8492547040
0.5271531250 3.7846315625 -5.6410428440
1.1162800000 4.2693356250 -4.0519943440
1.7405459375 3.6497325000 -5.6429921200
-2.2388353125 4.6452093750 -4.8341526720
-1.6812596875 4.7199756250 -5.6206900712
-1.0824175000 4.7806728125 -4.8667010480
-0.5768718750 5.4564043750 -6.4391060985
-1.1275675000 5.3586868750 -4.0722771760
-0.5275428125 4.8823678125 -5.6542525888
0.0320753125 4.8836981250 -4.8612223520
-0.0271571875 5.4389087500 -4.0366850800
0.6146581250 4.9284450000 -5.6613878456
1.1650715625 4.8427137500 -4.8488402400
1.1154737500 5.4036487500 -4.0632107760
1.7228084375 4.7689821875 -5.6939206792
-1.6893087500 6.3577515625 -6.4621267242
-1.6547206250 5.7887943750 -5.6588129880
-1.1094940625 5.9399259375 -4.8465736400
-1.1243021875 6.5116243750 -4.0692982160
-0.5272606250 6.0203896875 -5.6221458760
0.0494096875 5.9966590625 -4.8535677200
-0.0106156250 6.5691100000 -4.0676144560
0.5987481250 6.0280759375 -5.6910569920
1.1392581250 5.9892684375 -4.8247495200
1.7281565625 6.4514109375 -6.4584552208
1.1459365625 6.5442237500 -4.0127109280
1.6606062500 5.8593143750 -5.7071161768
-1.6483243750 3.0199706250 -3.2990298240
-1.7258721875 2.5145593750 -2.4091367600
-0.5274621875 3.2365025000 -3.2209551680
-0.5516496875 2.6159721875 -2.4725756560
1.1506934375 3.2212240625 -4.0440806720
0.5570112500 2.5898631250 -2.4464773760
1.7102981250 3.0957312500 -3.2219395200
-1.6849818750 4.1438159375 -3.2594355600
-1.6695153125 3.5686371875 -2.4523057760
-0.5204209375 4.3069068750 -3.2719730960
-0.5889253125 3.7712746875 -2.3983736480
0.5744800000 4.3797381250 -3.1782783280
0.5842759375 3.7713687500 -2.4580953200
1.6687090625 4.2286871875 -3.2219524720
1.7319190625 3.6546909375 -2.4137735760
-1.6896581250 5.2892821875 -3.2193361680
-1.6174718750 4.6962181250 -2.4561266160
-0.5879846875 5.4244365625 -3.2368343200
-0.5397306250 4.8612171875 -2.4337844160
0.5563528125 5.4728518750 -3.2592801360
0.5786053125 4.9485878125 -2.3997077040
1.6667068750 5.3068046875 -3.2581921680
1.7517662500 4.7716025000 -2.4033990240
-1.6537262500 6.3677221875 -3.2432714640
-1.6580262500 5.8384593750 -2.3750211920
-0.5729078125 6.5576209375 -3.2455251120
-0.5066206250 5.9897790625 -2.4452598880
0.5435737500 6.5750493750 -3.2663778320
0.5848268750 6.0373343750 -2.4320358960
1.7281431250 6.4362668750 -3.2571042000
1.6787603125 5.8778850000 -2.4578103760
2.2253575000 2.9599184375 -4.0782091920
0.5965981250 3.1926962500 -3.1944683280
1.6473837500 2.5394053125 -2.4120380080
2.2286496875 2.4209268750 -4.9141442240
2.2233418750 4.1087037500 -4.0647261600
2.2155750000 5.7891034375 -4.8827226720
-0.5439365625 4.3371546875 -6.4739432742
2.3006075000 3.5383759375 -4.8513917840
2.2680350000 5.2592762500 -4.0191092160
2.2967509375 6.3390465625 -4.0431999360
3.9258731250 6.6193796875 -5.6587806080
4.5171903125 6.6078771875 -4.8762725760
5.0579421875 6.4752893750 -5.6858127272
5.6181515625 6.3691465625 -4.8801840800
6.1927525000 6.3465850000 -5.6631855832
3.9823375000 6.6574481250 -2.4273990800
5.0429190625 6.4806509375 -2.4708012320
6.1487446875 6.3284040625 -2.4322042720
6.7029743750 2.3342818750 -4.0478238000
6.7045062500 4.0771390625 -4.8075104080
6.6829390625 5.7577000000 -4.0253261760
2.7389521875 2.8985628125 -6.4748987484
2.8455921875 2.3619362500 -5.6175207168
3.4221146875 2.2458631250 -4.8631910560
3.3184981250 2.8009796875 -4.0701789520
5.0861878125 2.5612546875 -6.4693797018
4.4855450000 2.6809425000 -4.0237071760
6.1676109375 2.4320531250 -6.4563357555
5.6240909375 2.4526259375 -4.0214794320
2.8666621875 3.4627496875 -5.6736054672
3.4052909375 3.4030334375 -4.8052826640
3.9729850000 3.8691803125 -6.4501357626
3.3852018750 3.9715203125 -4.0232409040
3.9105006250 3.2609050000 -5.7123047480
4.4702128125 3.2223796875 -4.8769201760
5.0491003125 3.7069762500 -6.4516635806