ITEM: TIMESTEP
1000
# source: voids-relax.1000.cfg
ITEM: NUMBER OF ATOMS
2298
ITEM: BOX BOUNDS pp pp pp
-6.7187500000 6.7187500000
-6.7187500000 6.7187500000
-6.4760000000 6.4760000000
ITEM: ATOMS x y z
-6.2046715625 -6.5730700313 -5.7063817984
-5.6470099375 -6.5253655625 -4.8709363520
-5.0404196875 -5.9589090938 -6.4490564725
-5.5823809375 -5.9790398125 -4.0327476720
-5.1092600000 -6.5604925313 -5.7192923520
-4.4998425000 -6.0623133438 -4.0724844080
-3.9746915625 -6.6962028156 -5.6440347560
-3.4189703125 -6.2637522188 -4.0695702080
-6.6973616656 -4.9677362500 -4.0455312960
-6.2229398438 -5.4479615938 -5.6507555488
-5.6399041875 -5.4405414063 -4.8789018320
-5.0490868750 -4.8160000000 -6.4427652975
-5.5926431563 -4.8729615625 -4.0730154400
-5.0689609375 -5.3981326563 -5.6615445648
-4.4853165625 -5.5114578125 -4.9091836080
-4.5154837500 -4.9691740625 -4.0651665280
-3.9088612500 -5.5614614375 -5.6842183360
-3.3729603125 -5.6881475000 -4.8358882400
-3.3748012500 -5.1319693750 -4.0264011920
-2.8191203125 -5.7571208438 -5.6523810248
-6.1566862500 -4.3540993750 -5.6259174984
-5.5779815000 -4.2946518750 -4.8544614080
-5.6246150000 -3.7254931250 -4.0688060400
-5.0092581250 -4.2546215625 -5.6505703352
-4.4484978125 -4.3970187500 -4.8539044720
-4.4831665625 -3.8524640625 -4.0215053360
-3.8925078125 -4.4382450000 -5.6889419304
-3.3666312500 -4.5694487500 -4.8367042160
-3.3327956250 -4.0112684375 -4.0313488560
-2.7996896875 -4.6889753125 -5.6561915032
-6.6316547094 -3.2534875000 -4.8868414080
-6.1585137500 -2.6804721875 -6.4319801671
-6.0687982813 -3.2733346875 -5.6953700080
-5.5416800938 -3.1345521875 -4.8322487280
-5.5855589063 -2.5902259375 -4.0025824640
-4.9886046875 -3.1465653125 -5.6658096584
-4.4595031250 -3.2792337500 -4.8095179680
-4.4151325000 -2.6960865625 -4.0695831600
-3.8965390625 -3.3365312500 -5.6387257312
-3.3291943750 -3.4427950000 -4.8362379440
-2.7601028125 -2.9801553125 -6.4197881905
-3.2882100000 -2.8624159375 -4.0806053120
-2.7920034375 -3.5781912500 -5.6899690240
-6.1613719063 -5.9891958750 -3.2458359600
-6.2150426250 -6.5587241563 -2.4551163600
-5.0357434375 -5.9628301563 -3.2031720720
-5.1025681250 -6.5733441563 -2.4840381760
-3.9567256250 -6.1455371563 -3.2088839040
-3.9796768750 -6.7121538941 -2.4149910640
-2.8547700000 -6.3138808125 -3.2608084720
-6.1271519688 -4.8610828125 -3.2413286640
-6.2201112500 -5.4368756563 -2.4460888160
-5.0465471875 -4.8458312500 -3.2111246000
-5.0790928125 -5.4050368438 -2.4034637840
-3.9562553125 -5.0354612500 -3.2504339200
-3.8883959375 -5.5805668750 -2.4173094720
-2.7853787500 -5.2076493750 -3.2750815760
-2.7890471875 -5.7522322813 -2.4448972320
-6.1806614375 -3.7868353125 -3.2441133440
-6.1299187500 -4.3243621875 -2.3988010640
-5.0667437500 -3.7455821875 -3.2687091920
-4.9878118750 -4.2737162500 -2.4141491840
-3.8930453125 -3.8881943750 -3.2681393040
-3.8948996875 -4.4639106250 -2.4774974160
-2.7370843750 -4.0961128125 -3.2571819120
-2.8075237500 -4.6506246875 -2.4525130080
-6.1576645000 -2.6867475000 -3.2240766000
-6.0631021250 -3.2252284375 -2.4066888320
-4.9785131250 -2.6254725000 -3.2749779600
-4.9785265625 -3.1834243750 -2.4617218800
-3.8543453125 -2.7930784375 -3.2641112320
-3.9143437500 -3.3397696875 -2.4374627840
-2.7707184375 -2.9750759375 -3.2198024400
-2.8009125000 -3.5430790625 -2.4323985520
-2.2845765625 -6.4230725938 -4.0450261680
-2.2649040625 -5.8501325313 -4.8095438720
-2.2606175000 -4.6583781250 -4.8216280880
-3.9106484375 -2.2815531250 -5.6240200304
-3.3033003125 -2.2885137500 -4.8705477920
-2.7603312500 -2.4022621875 -5.6745509632
-2.7424190625 -2.4125821875 -2.4329295840
-3.8908684375 -2.2662343750 -2.3654885200
-4.5633750000 -6.6172342563 -4.8932267440
-3.9447931250 -6.1399726875 -6.4550624444
-0.5748025000 -6.2130874688 -6.4306972715
-1.1257803125 -6.3342883438 -4.0219068480
-0.0631831250 -6.6233374344 -4.8951047840
-0.0250206250 -6.1018209375 -4.0148868640
0.5385078125 -6.6333343969 -5.6396893600
1.0837746875 -6.4713978750 -4.8474802800
1.0686440625 -5.9155153750 -4.0516575920
1.6748500000 -6.5027744375 -5.6288744400
-2.2246856250 -5.2492250000 -4.0794007760
-1.7279550000 -5.7627672813 -5.6373709520
-1.1367453125 -5.8104274063 -4.8783448960
-1.1039981250 -5.2338525000 -4.0841282560
-0.5852568750 -5.6181945625 -5.7020001368
-0.0055496875 -5.5619210000 -4.9036401520
0.5371237500 -4.9102640625 -6.4757172281
-0.0135450000 -5.0460768750 -4.0147962000
0.5749503125 -5.4863901563 -5.7104072800
1.1087281250 -5.3474531250 -4.8504462880
1.0934765625 -4.8157581250 -3.9988134320
1.6573409375 -5.4247563750 -5.6738049280
-2.1909440625 -4.0705950000 -4.0624854640
-1.6970353125 -4.6876853125 -5.6181229848
-1.1061884375 -4.6579346875 -4.8431802160
-1.0804018750 -4.0644943750 -4.0937645440
-0.5524156250 -4.4658321875 -5.6479112896
0.0450290625 -4.5042500000 -4.8775030160
0.0198740625 -3.9447259375 -4.0684563360
0.5737140625 -4.3278693750 -5.7164947200
1.1425503125 -4.2776400000 -4.8726848720
1.1423487500 -3.7401803125 -4.0148350560
1.6828587500 -4.3102528125 -5.7078272416
-2.2331781250 -3.5171984375 -4.8773216880
-2.1831906250 -2.9635868750 -4.0044605040
-1.6545190625 -3.6201028125 -5.6749848552
-1.1214803125 -3.4679231250 -4.8322487280
-1.0830759375 -2.9139487500 -4.0362576640
-0.5472959375 -3.4061240625 -5.6088143824
0.0414412500 -3.3687543750 -4.8262649040
0.0635190625 -2.7633278125 -4.1048773600
0.5703009375 -3.1748512500 -5.6376312872
1.1829703125 -3.2154056250 -4.9040157600
1.1707421875 -2.6622240625 -4.0650499600
1.7423331250 -3.1213028125 -5.6820929128
-1.7143293750 -6.3156250000 -3.2611193200
-0.5818571875 -6.1880251875 -3.1854407840
0.5418806250 -6.0778672500 -3.2030166480
1.6591818750 -5.9790451875 -3.2829822960
1.6438228125 -6.4897360313 -2.3637529520
-1.6663709375 -5.2259378125 -3.2627253680
-1.7149475000 -5.7805827188 -2.4124006640
-0.5781618750 -5.0337950000 -3.2119276240
-0.5930506250 -5.6089173125 -2.4283316240
0.5277443750 -4.8895165625 -3.1844046240
0.5750712500 -5.4914399688 -2.4662291760
1.6884621875 -4.8846790625 -3.2586843440
1.6668278125 -5.4280714063 -2.4178016480
-1.6260718750 -4.1765900000 -3.2546044640
-1.7000453125 -4.7073578125 -2.3754356560
-0.5459387500 -3.9343521875 -3.2414581840
-0.5565812500 -4.4817959375 -2.3833234240
0.5505075000 -3.7312846875 -3.2314592400
0.5832009375 -4.2915343750 -2.4411282000
1.6934475000 -3.7167856250 -3.2024985680
1.7026656250 -4.3202100000 -2.4658665200
-1.6292431250 -3.0566415625 -3.2021877200
-1.6635893750 -3.6355559375 -2.4236559520
-0.4932637500 -2.8761490625 -3.2609898000
-0.5315068750 -3.4097925000 -2.3694906880
0.6007368750 -2.6456959375 -3.2488149200
0.5787531250 -3.1863000000 -2.3806164560
1.6821331250 -2.5232937500 -3.1775789200
1.7016040625 -3.1460278125 -2.4616959760
2.2326271875 -6.5634407188 -4.8219907440
2.2313103125 -5.9958890938 -4.0661379280
-2.1583581250 -2.4587803125 -4.9154653280
-1.5979068750 -2.4581621875 -5.7051785576
-1.0552871875 -2.3383265625 -4.8403955360
-0.5019443750 -2.3589800000 -5.6837896248
-1.6066681250 -2.4632550000 -2.4843878800
2.1945721875 -5.3904679063 -4.8057230320
2.2282734375 -4.2651028125 -4.8724128800
2.2227371875 -2.6371496875 -4.0278777200
-0.5239684375 -2.3246203125 -2.4078027040
0.5293837500 -6.6495972656 -2.4101470160
0.5426734375 -6.0736640000 -6.4624931363
-0.5906856250 -5.0289709375 -6.4409796053
0.5753131250 -3.7261515625 -6.4474602680
1.6971025000 -3.7000828125 -6.4337536845
-1.6344165625 -3.0537793750 -6.4544425617
1.6855731250 -2.5398218750 -6.4601567250
6.6659003125 -5.5552600313 -4.8207084960
6.6941190625 -3.8135759375 -4.0696479200
6.7173256250 -2.7151140625 -4.0416975040
6.7001390625 -6.6630882469 -4.8633853360
6.7156593750 -6.1179660938 -4.0313100000
6.7071937500 -4.4012381250 -4.8226124400
2.7504009375 -6.6482007063 -5.7170464752
3.3072912500 -6.7152515334 -4.8523761360
3.3668596875 -6.1496450000 -4.0151588560
4.4358128125 -6.3053050000 -4.0622523280
5.5603568750 -6.2805477500 -4.0789604080
2.2647696875 -4.8213750000 -4.0443397120
2.7249906250 -5.5193120313 -5.6492544120
3.3196537500 -5.6406096563 -4.9130821600
3.8744478125 -5.1291609375 -6.4348618576
3.3670075000 -5.0761634375 -4.0927413360
3.9115218750 -5.7075620000 -5.6531128128
4.4896971875 -5.7528974375 -4.8954415360
4.4139768750 -5.2151609375 -4.0503623920
5.0645534375 -5.7846408438 -5.6903394512
5.5793037500 -5.6751561250 -4.7989750400
5.5510043750 -5.1042075000 -4.0151977120
6.1162528125 -5.6472262813 -5.6712300704
2.2477309375 -3.7228593750 -4.0251189440
2.8082225000 -4.3942775000 -5.6330980872
3.3865725000 -4.5066150000 -4.8789406880
3.3594825000 -3.9553281250 -4.0710855920
3.9665215625 -4.5612115625 -5.6448960640
4.5440653125 -4.6565103125 -4.8817642240
4.5117212500 -4.1248287500 -4.0386537840
5.0955940625 -4.6543468750 -5.7068182808
5.6339540625 -4.5701340625 -4.8651338560
5.5949315625 -4.0109190625 -4.0178269680
6.1971196875 -4.5631196875 -5.7087947560
2.3201321875 -3.1883156250 -4.8768165600
2.8705187500 -3.2929668750 -5.7033264216
3.3940437500 -3.3452118750 -4.7999075840
3.3794103125 -2.7938175000 -3.9789191600
3.9065768750 -3.4618628125 -5.6931927768
4.4487800000 -3.5401631250 -4.8209416320
4.5830340625 -2.9731006250 -4.0560742240
4.9988978125 -3.4848140625 -5.6357014392
5.6126556250 -3.5063006250 -4.9342457280
6.1787103125 -2.8128987500 -6.4164402280
5.6820065625 -2.9563306250 -4.0943732880
6.2224493750 -3.4003190625 -5.6466316320
2.7818984375 -6.0618161563 -3.2488537760
2.7522418750 -6.6380500188 -2.4596236560
3.9174478125 -6.2612783750 -3.1820214560
5.0009671875 -6.3390425313 -3.2570912480
6.1136325000 -6.1891835000 -3.2746800640
6.1040650000 -6.7116844013 -2.4035933040
2.8309453125 -4.9555350000 -3.2400723200
2.7326903125 -5.5155885000 -2.4184492480
3.8951281250 -5.1005928125 -3.1853760240
3.8870118750 -5.6869515625 -2.4275156480
4.9826115625 -5.2354515625 -3.2425332000
5.0705868750 -5.7851340000 -2.4240963200
6.1535821875 -5.0865640625 -3.2865052400
6.1524668750 -5.6282794063 -2.4376959200
2.8183812500 -3.8312865625 -3.2288688400
2.8074431250 -4.4064787500 -2.4248216320
3.9252684375 -3.9926171875 -3.2793427840
3.9496843750 -4.5286659375 -2.4099138800
5.0509009375 -4.0620487500 -3.1923830560
5.0764993750 -4.6602459375 -2.4611131360
6.1758481250 -3.9653525000 -3.2052573440
6.1840718750 -4.5480159375 -2.4390170240
2.7885096875 -2.6976587500 -3.2332466160
2.8632087500 -3.2714803125 -2.4412836240
3.9998600000 -2.8994900000 -3.2926185840
3.9314496875 -3.4376081250 -2.4304687040
5.1297925000 -2.9306381250 -3.2367695600
5.0021228125 -3.4815353125 -2.4199646320
6.1845018750 -2.8106009375 -3.1722815520
6.1835478125 -3.3981556250 -2.4212986880
3.3811706250 -2.2615178125 -4.8402012560
3.9374293750 -2.3732103125 -5.6844009592
4.4648378125 -2.3928425000 -4.8170042240
5.0208546875 -2.3877631250 -5.6346821168
5.6175871875 -2.3726459375 -4.8555493760
3.9256984375 -2.3658062500 -2.4341341200
5.0242543750 -2.3902490625 -2.3775986400
3.8979768750 -6.2682080938 -6.4403263064
2.8302331250 -4.9579000000 -6.4571736204
5.0470443750 -4.0460715625 -6.4411930542
6.1562293750 -3.9592384375 -6.4390263142
5.1393196875 -2.9530250000 -6.4754154115
-6.6485757469 -2.1798312500 -4.9096628320
-6.6538237625 -1.6512806250 -4.0306235440
-6.0905159688 -2.0816971875 -5.7152085864
-5.5638130000 -2.0531425000 -4.8483998720
-5.5335436875 -1.4850587500 -4.0305458320
-5.0010746875 -2.0703425000 -5.6720745408
-4.4616128125 -2.1019071875 -4.8161752960
-4.4099187500 -1.5274271875 -4.0701012400
-3.3147625000 -1.7390006250 -4.0487174880
-6.7112738588 -1.0857500000 -4.8263814720
-6.1689479688 -0.9474512500 -5.6510404928
-5.5866957188 -0.9511734375 -4.8547981600
-5.5198266875 -0.3525059375 -4.1014191760
-5.0361465625 -0.9665056250 -5.6489772392
-4.4296046875 -0.9731168750 -4.8903643520
-3.9043865625 -0.5491637500 -6.4144856417
-4.4405428125 -0.4445259375 -4.0212981040
-3.8764500000 -1.1522118750 -5.6809427752
-3.3002903125 -1.1936396875 -4.8989256240
-3.3434246875 -0.6789296875 -3.9996682640
-2.7133537500 -1.2409262500 -5.6667603352
-6.1207610938 0.1095021875 -5.6456019480
-5.5583761875 0.2296334375 -4.8530884960
-5.6115040313 0.7826268750 -4.0328383360
-4.9985887500 0.1838787500 -5.6644950304
-4.4158178125 0.0873168750 -4.8985111600
-4.4831934375 0.6099415625 -3.9862499920
-3.8422515625 0.0473940625 -5.7004705056
-3.3173962500 -0.1235578125 -4.8294510960
-3.3378481250 0.4402259375 -4.0429797520
-2.7687431250 -0.1435259375 -5.6814284752
-6.6376073875 1.2053034375 -4.9079920240
-6.1989942188 1.8248796875 -6.4297648570
-6.0776105938 1.2425790625 -5.6975459440
-5.5325694688 1.3349753125 -4.8674134080
-5.6401191875 1.8567803125 -3.9869494000
-4.9787012500 1.3138112500 -5.7089022576
-4.4705890625 1.1596428125 -4.8106447920
-4.4646765625 1.7420643750 -4.0399748880
-3.9225675000 1.1714812500 -5.6831718144
-3.3823665625 1.0168021875 -4.8191542560
-2.7713500000 1.5152259375 -6.4513289009
-3.3167915625 1.6064262500 -4.0897364720
-2.8266318750 0.9540490625 -5.6387516352
-6.0943738750 -1.4997056250 -3.2269519440
-6.1052367500 -2.0842503125 -2.4695707920
-4.9589750000 -1.5109931250 -3.2290631200
-5.0288768750 -2.0841696875 -2.4352738960
-3.8801721875 -1.7327521875 -3.2095315040
-2.7847068750 -1.8167096875 -3.1814256640
-6.0698235625 -0.3820953125 -3.2548894080
-6.1817888438 -0.9508106250 -2.4351702800
-5.0223328125 -0.4262509375 -3.1892227680
-5.0194571875 -0.9752400000 -2.3685710960
-3.8997640625 -0.5623190625 -3.1773198800
-3.8508784375 -1.1531390625 -2.4357142640
-2.7511131250 -0.6809453125 -3.2324435920
-2.6941650000 -1.2382656250 -2.4215447760
-6.1833247500 0.6749521875 -3.2376114400
-6.1221438125 0.1376403125 -2.3802019920
-5.0576868750 0.7063287500 -3.2168234800
-4.9603456250 0.1573800000 -2.4161437920
-3.8782640625 0.6276656250 -3.2316017120
-3.8444418750 0.0367650000 -2.4751142480
-2.7522687500 0.4189006250 -3.2832283840
-2.7413575000 -0.1118537500 -2.4131648320
-6.2027983750 1.8092921875 -3.1894429520
-6.0701447188 1.2402812500 -2.4221405680
-5.0233137500 1.8722200000 -3.2582439760
-4.9870325000 1.3022281250 -2.4757100400
-3.8736818750 1.7123540625 -3.2725300320
-3.9030562500 1.1829434375 -2.4195890240
-2.7791168750 1.5090043750 -3.2261748240
-2.7644968750 0.9479484375 -2.3964049440
-3.9640625000 2.2309609375 -5.6273940264
-2.7916943750 2.0612856250 -5.6287086544
-2.7992193750 2.0463162500 -2.3863671440
-2.2414825000 0.8985387500 -4.8762466720
-6.6405679375 -0.4958303125 -4.0458810000
-6.6891873656 0.0687193750 -4.8216410400
-3.3734575000 2.1837550000 -4.8636832320
-6.1087399063 -1.4920059375 -6.4681778598
-3.8641143750 -1.7228218750 -6.4501533774
-2.7795334375 -1.8151375000 -6.4434491631
-5.0024050000 -0.3924018750 -6.4334139535
-6.1694518750 0.6608831250 -6.4695161899
0.0109918750 -2.1559528125 -4.8047386800
-2.2384993750 -1.9296518750 -4.0276575360
-2.1659234375 -1.3815228125 -4.8464311680
-2.2112884375 -0.8185990625 -4.0624854640
-2.2216890625 -0.2297409375 -4.8128984400
-1.6693137500 -1.8822309375 -6.4706227700
-0.5053575000 -1.7905065625 -6.4688277005
-1.1277287500 -1.8157959375 -3.9796574240
0.0591787500 -1.5750496875 -4.0153142800
0.5800700000 -2.0833231250 -5.6324634392
1.1513921875 -2.0823018750 -4.8487625280
1.1913553125 -1.4983753125 -4.0983625040
1.7186293750 -1.9850950000 -5.6432524552
-1.6120700000 -1.3147518750 -5.6810010592
-1.0641828125 -1.2787393750 -4.8478429360
-0.5246134375 -0.6133546875 -6.4278657053
-1.0646934375 -0.7044609375 -4.0446117040
-0.5116193750 -1.2075206250 -5.7032668424
0.0312153125 -1.0521293750 -4.8756249760
0.0128059375 -0.5090259375 -4.0054189520
0.6227206250 -1.0204840625 -5.6807148200
1.1344475000 -0.8844965625 -4.8072513680
1.1387206250 -0.3260340625 -4.0259478720
1.6762609375 -0.9054321875 -5.6610666360
-1.6311243750 0.3474534375 -6.4495801218
-2.1656950000 0.3524656250 -4.0528880320
-1.6767984375 -0.2207512500 -5.6388241664
-1.0868921875 -0.1723493750 -4.8742002560
-1.0726618750 0.4093734375 -4.0633014400
-0.5215900000 -0.0330159375 -5.6530584144
0.0684775000 0.0156815625 -4.8881107040
0.0199278125 0.5617950000 -4.0674719840
0.6109628125 0.1207359375 -5.7002218272
1.1588365625 0.2324956250 -4.8543059840
1.7101368750 0.7804634375 -6.4469982702
1.1387878125 0.7776012500 -4.0061183600
1.6984059375 0.1727256250 -5.6989836160
-1.6914587500 1.4447596875 -6.4693277383
-2.2211784375 1.4575656250 -4.0669280000
-1.6527453125 0.9072328125 -5.6351626360
-1.0815575000 0.9726600000 -4.8685013760
-1.1098165625 1.5107915625 -4.0135657600
-0.5064728125 1.0619387500 -5.6703881904
0.0290653125 1.1512309375 -4.8150743760
0.5673984375 1.8339231250 -6.4685491677
0.0233946875 1.7463912500 -4.0643505520
0.5526575000 1.2575887500 -5.6706511160
1.1429265625 1.3017981250 -4.8840308240
1.1082443750 1.8810215625 -4.0782869040
1.7107953125 1.3343975000 -5.6478050832
-1.6832753125 -1.8431546875 -3.1907640560
-0.5001034375 -1.7908962500 -3.2751074800
0.6782175000 -1.5855443750 -3.2626735600
0.5638778125 -2.1177768750 -2.3829089600
1.7424137500 -1.4195643750 -3.2420280720
1.7552331250 -1.9802978125 -2.3847351920
-1.6491037500 -0.7423950000 -3.2583864480
-1.5560759375 -1.2810237500 -2.3886726000
-0.5385481250 -0.6117018750 -3.1785503200
-0.5031000000 -1.2212940625 -2.4772124720
0.5930371875 -0.4538246875 -3.2120441920
0.5821662500 -1.0423737500 -2.4522539680
1.7447787500 -0.3621271875 -3.2894194400
1.7133887500 -0.8778046875 -2.3949413680
-1.6250909375 0.3270956250 -3.2254365600
-1.6679028125 -0.2159540625 -2.3757594560
-0.5239415625 0.5156775000 -3.2044284160
-0.5356053125 -0.0289981250 -2.4093828480
0.5533428125 0.7266059375 -3.2301899440
0.6448253125 0.1430018750 -2.4753473840
1.7241925000 0.7449346875 -3.2418596960
1.6990643750 0.1905168750 -2.4380974320
-1.6803996875 1.4717959375 -3.2216545760
-1.6603643750 0.9001781250 -2.4418146560
-0.5167121875 1.5955015625 -3.2402277440
-0.5776512500 1.0877118750 -2.3758371680
0.5682181250 1.8033393750 -3.2051925840
0.5963025000 1.2462743750 -2.3592197520
1.6342821875 1.9098046875 -3.1975250000
1.7291912500 1.3171034375 -2.4558675760
2.2382709375 -0.9684003125 -4.8210063920
2.2370884375 0.1802237500 -4.8609503600
-2.2099850000 2.0347331250 -4.8400199280
-1.6808431250 2.0267781250 -5.6800257736
-1.1141703125 2.0696571875 -4.8456281440
-0.5852703125 2.1632090625 -5.6853607024
-1.6461071875 2.0425134375 -2.4228140720
-0.5530203125 2.1890493750 -2.4755157600
2.1729378125 1.8271371875 -4.0435366880
0.5997693750 0.7053478125 -6.4750674974
1.6343359375 1.8903740625 -6.4648465665
6.1696668750 -2.2391309375 -5.6337625248
2.2693921875 0.7481596875 -4.0766938080
6.7081075000 0.6624015625 -4.0780019600
6.6987684375 1.7463240625 -4.0683915760
2.2972750000 -2.0979028125 -4.8733324720
2.3115187500 -1.5574734375 -4.0354157840
2.8490590625 -2.1665953125 -5.7013123856
3.4272881250 -1.6916603125 -4.0293801520
4.5196225000 -1.8001815625 -4.0813953840
5.6458193750 -1.8087412500 -4.0705804640
2.8706800000 -0.4763056250 -6.4584291873
2.3223090625 -0.3934365625 -4.0699976240
2.7752065625 -1.0188984375 -5.6515572776
3.3723421875 -1.1726368750 -4.9067615840
3.9101109375 -0.6699937500 -6.4410924172
3.4080725000 -0.5918681250 -4.1153037200
3.9792737500 -1.2306062500 -5.6178626496
4.5763959375 -1.2405903125 -4.8911932800
5.0008059375 -0.7642040625 -6.4743564042
4.4464015625 -0.6981721875 -4.0598173520
5.1438078125 -1.3225725000 -5.6831744048
5.6760134375 -1.2056528125 -4.8056453200
5.5754337500 -0.6554140625 -3.9885813520
6.1907906250 -1.1506128125 -5.7155828992
2.8344928125 0.0800068750 -5.6281426520
3.4252456250 -0.0149962500 -4.8801711280
3.3639437500 0.5510315625 -4.0781055760
4.0078015625 -0.0968171875 -5.6435063144
4.5954771875 -0.1292015625 -4.8678796800
5.0929737500 0.4013512500 -6.4594359462
4.5061581250 0.3903996875 -4.0111955440
5.1233156250 -0.1889984375 -5.7147902368
5.6780559375 -0.1345093750 -4.8686568000
6.1770440625 0.5475646875 -6.4565823616
5.6272756250 0.4347837500 -4.0384854080
6.2287784375 -0.0564643750 -5.7068532512
2.3046925000 1.2961543750 -4.8965295040
2.8764178125 1.1725428125 -5.6784987328
3.4208918750 1.1372962500 -4.8186750320
3.3488131250 1.6843771875 -3.9834523600
3.9170984375 0.9968475000 -5.7432988840
4.4560496875 0.9588193750 -4.8304224960
5.1279650000 1.5344550000 -6.4683839650
4.5717465625 1.5129953125 -4.0113250640
4.9860650000 0.9732243750 -5.6815476336
5.5689031250 0.9494131250 -4.9092742720
5.6632343750 1.5252503125 -4.1137365280
6.1795165625 1.0784131250 -5.5968558008
2.8782453125 -1.5461053125 -3.2214214400
2.8775600000 -2.1320071875 -2.4694283200
4.0065921875 -1.7796356250 -3.2187015200
5.0856771875 -1.8756600000 -3.2607696160
6.1912878125 -1.6882337500 -3.2517550240
6.2027231250 -2.2213128125 -2.4124654240
2.8799115625 -0.4759562500 -3.2371063120
2.7709200000 -0.9985943750 -2.3793601120
3.9202562500 -0.6536806250 -3.1685254720
3.9633637500 -1.2464490625 -2.3886596480
5.0059928125 -0.7629275000 -3.2281564800
5.1295506250 -1.3167003125 -2.4184751520
6.2154753125 -0.5932387500 -3.3178490800
6.1866787500 -1.1230256250 -2.4436020320
2.8259600000 0.5916128125 -3.2309929680
2.7965856250 0.0567465625 -2.3619137680
3.9169640625 0.4318543750 -3.2486724480
3.9965678125 -0.0965618750 -2.3847481440
5.0746718750 0.4048584375 -3.2145698320
5.1303568750 -0.1869962500 -2.4684957760
6.1913953125 0.5352828125 -3.2051407760
6.2045506250 -0.0588965625 -2.4579139920
2.7569046875 1.7494684375 -3.2637874320
2.8518943750 1.1711318750 -2.4595329920
3.9742750000 1.5730206250 -3.2979936640
3.9272706250 1.0295812500 -2.4831185840
5.1510640625 1.5264731250 -3.2276772560
4.9824368750 0.9676075000 -2.4210007920
6.1739534375 1.6491171875 -3.1791979200
6.1705403125 1.0783593750 -2.3678198800
3.8680515625 2.1358234375 -5.7016556136
4.4163821875 2.0427015625 -4.8709363520
5.0072156250 2.0799234375 -5.6272165840
5.5814403125 2.1180590625 -4.8372093440
6.1436250000 2.2005250000 -5.6269640200
3.8669631250 2.1307978125 -2.4793884080
4.9754359375 2.0615946875 -2.3900584640
3.3257678125 2.2204796875 -4.8417684480
6.1323912500 2.2274806250 -2.3726509760
2.8796696875 -1.5840796875 -6.4610900462
3.9679190625 -1.7774184375 -6.4488256678
6.1659984375 1.6334490625 -6.4461416249
-3.9366903125 2.2415631250 -2.3766272400
-3.4017837500 6.6116934375 -4.8804172160
-2.8105606250 6.5963075000 -5.6400610824
-2.8177228125 6.5971271875 -2.3994616160
-2.2457556250 6.4570950000 -4.8484128240
-6.6975132406 2.3136284375 -4.8778527200
-6.1548748750 2.4338403125 -5.7049868680
-5.6119407500 2.3880050000 -4.8638516080
-5.5799648750 2.9506062500 -4.0405188720
-5.0511293750 2.4193681250 -5.6893175384
-4.5243928125 2.3166921875 -4.8110204000
-4.4678343750 2.9150775000 -4.0919383120
-3.3793834375 2.7559103125 -4.0708524560
-6.2318959375 3.5346000000 -5.6659145696
-5.6709098750 3.5054271875 -4.8356939600
-5.0642578125 4.0724359375 -6.4411965513
-5.5882490938 4.1023075000 -4.1000721680
-5.1106843750 3.5152231250 -5.6138397584
-4.4873859375 3.4748031250 -4.8981096480
-4.5125946875 4.0234428125 -4.0804110320
-3.9083775000 3.3317340625 -5.6345810912
-3.3232012500 3.3217096875 -4.8626211680
-3.4060031250 3.8602040625 -4.0169721360
-2.7657734375 3.1558371875 -5.6833647992
-6.2396440000 5.1495993750 -6.4632143943
-6.1880641563 4.5997368750 -5.6376753240
-5.6242992188 4.6967825000 -4.8434004000
-5.6948151875 5.2635628125 -4.0645577840
-5.0510353125 4.6294875000 -5.6263293720
-4.4752653125 4.6119650000 -4.8422347200
-4.5378168750 5.1611690625 -4.0063774000
-3.9391493750 4.4775496875 -5.6946744856
-3.3853765625 4.4204940625 -4.8429859360
-2.7866015625 4.8768584375 -6.4366075282
-3.3767631250 4.9594453125 -4.0164799600
-2.8576053125 4.2896800000 -5.7004381256
-6.2477804063 6.2722890625 -6.4644653115
-6.1466014063 5.7252887500 -5.6662409600
-5.5929307188 5.8385131250 -4.8559897440
-5.6671823125 6.3678700000 -4.0112991600
-5.0497990625 5.7304487500 -5.7066939416
-4.5308562500 5.7169037500 -4.8153204640
-3.9293400000 6.1907637500 -6.4643772897
-4.4946556250 6.2949850000 -4.0255075040
-3.9931546875 5.6035181250 -5.6942833352
-3.4371915625 5.5038790625 -4.8725424000
-3.3802300000 6.0610112500 -4.0701400960
-2.8557375000 5.4495378125 -5.6633008560
-6.1431385625 2.9858931250 -3.2305914560
-6.1588295313 2.4118162500 -2.4591444320
-5.0183418750 2.9963743750 -3.2396190000
-5.0530240625 2.4245012500 -2.4451044640
-3.9345537500 2.7749512500 -3.2296200560
-2.8197115625 2.5838162500 -3.2400334640
-6.1379651250 4.0778378125 -3.2723487040
-6.2520293438 3.5254759375 -2.4174648960
-5.0702375000 4.0733496875 -3.2147641120
-5.1024606250 3.5203831250 -2.3716018640
-3.9939878125 3.9029084375 -3.2190641760
-3.9211968750 3.3259290625 -2.4140196640
-2.8459550000 3.7266756250 -3.2392433920
-2.7972978125 3.1459606250 -2.4609059040
-6.2438136563 5.1616662500 -3.2366918480
-6.2033036250 4.5964178125 -2.4142787040
-5.1308809375 5.1491290625 -3.2653028160
-5.0719306250 4.6295143750 -2.3849424240
-3.9589831250 5.0303550000 -3.2485429280
-3.9509340625 4.4711131250 -2.4463996640
-2.8220093750 4.8982509375 -3.2004392000
-2.8399350000 4.2958209375 -2.4701536320
-6.2497973750 6.2878093750 -3.2192325520
-6.1379758750 5.7295618750 -2.4361934880
-5.0861743750 6.2972962500 -3.2657561360
-5.0502290625 5.7245496875 -2.4734563920
-3.9261418750 6.1687396875 -3.2354225520
-3.9938803125 5.6049693750 -2.4504147840
-2.8480378125 6.0201881250 -3.2006205280
-2.8510209375 5.4553965625 -2.3990730560
-2.2758153125 4.8040675000 -4.0398194640
-2.2783953125 5.3525056250 -4.9036660560
-2.3066812500 5.8803978125 -4.0584832960
-2.2628212500 2.6022928125 -4.0481087440
-2.2544228125 3.7375331250 -4.0082942960
-2.2866459375 4.2624287500 -4.8880200400
-6.7110110616 2.8468015625 -4.0170498480
-3.9180525000 2.7865209375 -6.4509948688
-3.9910181250 3.8948325000 -6.4523825461
-2.8537621875 6.0310725000 -6.4360676888
0.5590000000 2.3587515625 -2.3704879920
-2.2268490625 3.1718815625 -4.8262649040
-1.7111178125 6.5432159375 -5.7066641520
-1.1629350000 6.5482415625 -4.8664161040
-0.6115675000 6.6144212500 -5.7095317248
-1.7012412500 6.5530387500 -2.4475394400
-0.5806478125 6.6345775000 -2.4745573120
-0.5154625000 2.7612046875 -6.4483729954
-1.0950218750 2.6211053125 -4.0359079600
-0.0169043750 2.2896425000 -4.8854944000
0.5333478125 2.9504181250 -6.4470026738
0.0040043750 2.8359843750 -4.0166094800
0.5676268750 2.3731834375 -5.6486081072
1.1420665625 2.4501668750 -4.8750032800
1.0896065625 2.9999621875 -4.0566829680
1.7185084375 2.4613737500 -5.6550556128
-1.6901553125 3.1048015625 -5.6868268688
-1.1469175000 3.1861790625 -4.8295029040
-1.1251890625 3.7724840625 -4.0783257600
-0.6090143750 3.3237790625 -5.6505288888
-0.0043537500 3.3607053125 -4.8953379200
-0.0177643750 3.9026262500 -4.0652830960
0.5654096875 3.5337937500 -5.6779482728
1.1067662500 3.5815103125 -4.8455115760
1.1071425000 4.1175187500 -3.9946040320
1.6496950000 3.5457128125 -5.7125586072
-1.7046946875 4.8085421875 -6.4332172126
-1.6998437500 4.2365884375 -5.6469256424
-1.1489062500 4.3504578125 -4.8445272240
-1.2094556250 4.9233253125 -4.0498702160
-0.5655440625 4.4023668750 -5.6464334664
-0.0258000000 4.5065209375 -4.8045703040
-0.0397750000 5.0891171875 -4.0726527840
0.4943925000 4.6367303125 -5.6964579760
1.0519681250 4.6557846875 -4.8573497040
1.6674728125 5.2976268750 -6.4451667278
1.1276884375 5.2140993750 -4.0427077600
1.5878556250 4.6992953125 -5.6945527368
-1.7376703125 5.9476793750 -6.4703724596
-1.6834096875 5.4004640625 -5.6676151672
-1.1361809375 5.4710646875 -4.8666880960
-1.1908446875 6.0146518750 -4.0062996880
-0.5580996875 5.4845425000 -5.6741144808
-0.0504981250 5.6900018750 -4.8150614240
-0.0458353125 6.2630037500 -4.0439252480
0.5112565625 5.7099968750 -5.6517399008
1.0628121875 5.7723334375 -4.8486848160
1.0777815625 6.3709203125 -4.1053565840
1.6376953125 5.8473818750 -5.6343466600
-1.6928159375 2.5808465625 -3.2606660000
-0.5694006250 2.7741046875 -3.2154635200
0.5674925000 2.9043140625 -3.2023560960
1.6633340625 3.0089115625 -3.2630103120
1.7089409375 2.4784125000 -2.4095512240
-1.6772150000 3.6789590625 -3.2498381280
-1.7112790625 3.1380190625 -2.4147449760
-0.5932118750 3.8942278125 -3.2434527920
-0.5876084375 3.3377406250 -2.4118437280
0.5106653125 4.0761312500 -3.2348008560
0.5313053125 3.5033443750 -2.4660089920
1.6951406250 4.1232431250 -3.2517161680
1.6361365625 3.5798440625 -2.4402733680
-1.7202418750 4.8109206250 -3.1924607680
-1.7167212500 4.2314150000 -2.4276969760
-0.5972565625 4.9376093750 -3.2853136560
-0.5961412500 4.4216631250 -2.3697885840
0.5332403125 5.1995600000 -3.2784620480
0.5092812500 4.6563625000 -2.4478114320
1.6592490625 5.3044396875 -3.1981985040
1.6022740625 4.7079221875 -2.4763187840
-1.7648946875 5.9795531250 -3.2201132880
-1.6663575000 5.4004640625 -2.4523834880
-0.5964637500 6.0609306250 -3.2364328080
-0.5686212500 5.4901190625 -2.4512825680
0.5485456250 6.2490018750 -3.2660540320
0.4951718750 5.7287690625 -2.3745160640
1.6134003125 6.4089887500 -3.2312908640
1.6265825000 5.8606446875 -2.3897476160
2.1543671875 4.6267865625 -4.9134966240
2.1972193750 5.1744990625 -4.0683268160
2.2349250000 5.7430800000 -4.8952990640
2.1523112500 6.2794109375 -4.0673683680
2.1638943750 3.5294668750 -4.8245422880
-1.6954631250 3.6960381250 -6.4674535321
1.7036465625 4.1370165625 -6.4699195929
6.6642340625 3.4085696875 -4.8156701680
6.7150815625 4.0017009375 -4.0266861360
3.8368228125 6.5757750000 -5.7094799168
4.3852071875 6.5604293750 -4.8552644320
4.9483459375 6.5648906250 -5.6288977536
5.5416518750 6.5864846875 -4.8518192000
6.1024121875 6.7081343750 -5.6332237216
3.8401015625 6.5700506250 -2.4713581680
4.9670106250 6.5522459375 -2.3991637200
6.6707243750 4.5340006250 -4.8542930320
6.6408259375 5.1146081250 -4.0735335200
6.7050975000 5.6642018750 -4.9022154320
6.6529062500 6.2047387500 -4.0691816480
2.2733965625 2.4004078125 -4.8340879120
2.2444253125 2.9488996875 -4.0274762080
2.7946909375 2.2872237500 -5.7376531072
3.9491737500 2.7402018750 -6.4249753370
3.3985856250 2.7841693750 -4.0226839680
4.4617740625 2.6241153125 -4.0951504080
5.5576693750 2.6934662500 -4.0642339840
2.2718512500 4.0886953125 -4.0412312320
2.7213087500 3.4426337500 -5.6773485952
3.2764521875 3.3019834375 -4.9034976800