ITEM: TIMESTEP
81000
# source: voids-relax.81000.cfg
ITEM: NUMBER OF ATOMS
2298
ITEM: BOX BOUNDS pp pp pp
-6.7187500000 6.7187500000
-6.7187500000 6.7187500000
-6.4760000000 6.4760000000
ITEM: ATOMS x y z
-5.5356291875 -6.2285150625 -4.0336931680
-4.4784365625 -6.6492155063 -4.8715321440
-3.9244218750 -5.3911048438 -5.6703959616
-4.4545043750 -6.0645910000 -4.0838433120
-3.9354003125 -6.4840156875 -5.6865587624
-3.3561634375 -6.4232781875 -4.8849245120
-2.7567434375 -5.7974024375 -6.4394436276
-3.3679750000 -5.8825746875 -4.0378119040
-2.7807428125 -6.3779306563 -5.6742789712
-6.6819387750 -5.8246845938 -4.8191931120
-6.1601343125 -5.6940290938 -5.6860639960
-5.5956088125 -5.6722160000 -4.8542671280
-5.0663809375 -4.9795612500 -6.4555577289
-5.6507563125 -5.1134390625 -4.0500904000
-5.0370468750 -5.5606175625 -5.6880016152
-4.4966040625 -5.4919062500 -4.8652763280
-4.4681434375 -4.9603187500 -4.0098614880
-3.3623581250 -5.3258859375 -4.8377274240
-2.8353393750 -5.2262200000 -5.6653058256
-6.6849459531 -4.0922696875 -4.0670445680
-6.1503894375 -4.6168293750 -5.6124681416
-5.5599295625 -4.5514962500 -4.8427787040
-5.6279421250 -3.9464056250 -4.1291623600
-5.0366303125 -4.3999884375 -5.6858852584
-4.4666384375 -4.4075537500 -4.8486848160
-4.5202809375 -3.8329393750 -4.0603224800
-3.9290175000 -4.2874225000 -5.6939426976
-3.3859409375 -4.1667403125 -4.8613000640
-3.9545621875 -3.7091128125 -3.2812726320
-2.8056828125 -4.1405775000 -5.6465215400
-6.7105245166 -3.0197287500 -3.9724302080
-6.2009157813 -3.5415068750 -5.6623968064
-5.6614565938 -3.3515678125 -4.8696541040
-5.5290703438 -2.8143096875 -4.0361022400
-5.0465471875 -3.3441637500 -5.5985408560
-4.4608737500 -3.2699081250 -4.8457706160
-4.4695140625 -2.6599396875 -4.1213911600
-3.9184825000 -3.1240575000 -5.6698053504
-3.3287912500 -3.0900337500 -4.8857534400
-2.8257315625 -2.4126359375 -6.4426318919
-3.3989484375 -2.5367043750 -4.0443267600
-2.7640265625 -2.9995053125 -5.7152319000
-6.1289915625 -6.2648312500 -3.2879817680
-4.9734740625 -6.1134914063 -3.2087155280
-5.0745106250 -6.6712818969 -2.3893461040
-3.9097078125 -5.9545271250 -3.1957376240
-3.8480028125 -6.5025231563 -2.3783239520
-2.8080075000 -5.8020746563 -3.2525321440
-2.7323006250 -6.3508540938 -2.4092662800
-6.2233980625 -5.1727656250 -3.2685537680
-6.1272688750 -5.7218433750 -2.4410763920
-5.0750346875 -4.9770350000 -3.3002473120
-5.0731803125 -5.5281901875 -2.4679647440
-3.8901831250 -4.8297868750 -3.2552520640
-3.9526406250 -5.3769242500 -2.4267773840
-2.8477825000 -4.1310637500 -2.4096289360
-6.1373550625 -4.0874859375 -3.2032886400
-6.1215418125 -4.6444703125 -2.3854993600
-5.1001762500 -3.8858428125 -3.2556276720
-4.9918834375 -4.4485246875 -2.4332145280
-3.9620065625 -4.2544468750 -2.4677186560
-3.3613100000 -3.6178453125 -4.0169073760
-6.1083206563 -2.9379212500 -3.2670642880
-6.2071279375 -3.4895171875 -2.4572275360
-4.9684484375 -2.8142828125 -3.1969162560
-5.0223059375 -3.3644140625 -2.3722753680
-3.9449543750 -2.6146553125 -3.2033015920
-3.8509456250 -3.1810996875 -2.3958480080
-2.8241728125 -2.4089540625 -3.2684760560
-2.7913046875 -3.5822628125 -3.2097128320
-3.3334540625 -4.7339640625 -4.0789215520
-2.8008050000 -5.2341078125 -2.4265572000
-6.6962859938 -2.4777137500 -4.8271715440
-6.1875683125 -2.3612778125 -5.7414221392
-5.6627990000 -2.2565996875 -4.8485682480
-6.1521860313 -2.3653090625 -2.4842583600
-2.7970962500 -4.6960300000 -3.2284932320
-2.7884828125 -2.9671075000 -2.4709825600
-2.2591931250 -6.2932555938 -4.8181569520
-2.2504587500 -5.1919946875 -4.8597717280
-2.2743506250 -3.5090956250 -4.0668891440
-2.2427456250 -2.9344812500 -4.8628672560
-5.0868193750 -2.2593946875 -5.6635495344
-5.0548515625 -6.6622165563 -5.6670245560
-6.1708090625 -6.2710958125 -6.4733271994
-3.9444840625 -3.7042753125 -6.4444987932
-2.8355946875 -3.5904328125 -6.4618740307
-6.1161533750 -2.9650112500 -6.4434240362
-3.9468087500 -2.5665087500 -6.4758390157
-2.2317403125 -4.6123546875 -4.0619026240
-2.2194046875 -5.7248815938 -4.0170239440
-1.6935953125 -4.6456931250 -3.2224576000
-1.6963096875 -5.2038868750 -5.6506312096
-1.6781018750 -6.3052915625 -5.6232934232
-1.1293143750 -6.3385372813 -4.8022907520
-0.5959128125 -5.8568969688 -6.4404132143
-1.1262103125 -5.7322587813 -4.0897105680
-0.5868962500 -6.4271737188 -5.6313664048
0.0362006250 -6.4768696250 -4.9033163520
0.4838575000 -6.0305430625 -6.4684473520
-0.0769296875 -5.9360720625 -4.0126979760
0.6083693750 -6.5944138875 -5.6592572416
1.1869343750 -6.6634900281 -4.8571683760
1.0560665625 -6.1359844375 -4.0050174400
-1.6942134375 -4.6079875000 -6.4054772666
-1.0935034375 -5.1898043750 -4.9283784720
-0.4944596875 -5.2923190625 -5.6550387752
-0.5219259375 -4.1508437500 -5.6900337840
-1.1315987500 -4.6902787500 -4.0196272960
0.0536156250 -5.4031878438 -4.8497339280
-0.0217821875 -4.8426196875 -4.0527455600
0.6130456250 -5.4483324688 -5.7020946864
1.1179731250 -5.5526477813 -4.7834196880
1.1341518750 -4.9677900000 -4.0358561520
1.6242175000 -5.6705080938 -5.6858243840
-2.2201571875 -4.0726643750 -4.8859865760
-1.6525706250 -4.0016606250 -5.6824335504
-1.0972121875 -4.1302978125 -4.8607949360
-1.1674096875 -3.5643371875 -4.0720569920
-0.0004837500 -4.2474325000 -4.7979259280
1.1365571875 -3.8640606250 -4.0143040240
0.0034265625 -3.6701843750 -4.0454535840
0.5239684375 -4.3848040625 -5.6757179384
1.1023990625 -4.4041406250 -4.8666103840
1.7299571875 -3.9493484375 -6.4305663268
1.1056643750 -3.3430484375 -4.9106083280
1.6437825000 -4.5328853125 -5.7043327920
-2.2277762500 -2.4081881250 -4.0032300640
-1.6582143750 -2.9244434375 -5.6543238248
-1.1180268750 -2.9613562500 -4.7908152800
-0.5559496875 -2.5326596875 -6.4720705575
-1.0771365625 -2.3753334375 -4.0587811920
-0.5970415625 -3.0876553125 -5.6489642872
-0.0009675000 -3.1118562500 -4.8641754080
0.5342212500 -3.2510956250 -5.6888007536
1.1255921875 -2.8222646875 -4.0185134240
1.7104056250 -2.7406050000 -3.2060085600
1.6933265625 -3.3538521875 -5.6760521000
-1.6517509375 -5.7981052188 -3.1986518240
-1.8162125000 -6.3090298750 -2.2557073680
-0.6147253125 -5.8505961250 -3.1632799120
-0.5903496875 -6.4047707188 -2.3583519680
0.4960453125 -5.9844148125 -3.2190771280
0.5953215625 -6.5563645313 -2.4291735040
1.6583084375 -6.2030362188 -3.2775683600
-1.6906121875 -5.1889175000 -2.4395480560
-0.5554390625 -4.6900234375 -3.2272239360
-0.5434662500 -5.2456640625 -2.4202236720
0.5630984375 -4.8848000000 -3.2589822400
0.5672640625 -5.4259657500 -2.4088647680
1.6871587500 -5.1057796875 -3.2137927120
1.6412159375 -5.6736457500 -2.4124265680
-1.7005290625 -3.5214178125 -3.2273016480
-1.6586578125 -4.0807537500 -2.4196278800
-0.5986271875 -3.6004034375 -3.2940821600
-0.5500103125 -4.1307546875 -2.4053029680
0.5524693750 -3.8061584375 -3.2318089440
0.5323937500 -4.3439675000 -2.3799688560
1.7027462500 -3.9375771875 -3.1940279600
1.6419415625 -4.5262471875 -2.4475523920
-1.6898462500 -2.9634390625 -2.4100434000
0.0061946875 -2.5765600000 -4.0069731920
-0.5242371875 -3.0993190625 -2.4036192080
0.5756356250 -2.6400656250 -3.2156578000
0.5495400000 -3.2510553125 -2.4668249680
2.1885656250 -5.7017166875 -4.8463275520
2.2009415625 -4.6279421875 -4.9083158240
1.0817590625 -2.2476637500 -4.7972783280
1.6562256250 -2.2717034375 -5.6235563488
-1.6395362500 -2.4266109375 -3.2513794160
-0.5533025000 -2.5210765625 -3.1730068640
1.6894565625 -3.3355368750 -2.5023004960
0.6302859375 -3.8251321875 -6.4738002194
2.2255725000 -4.0964353125 -4.0439511520
2.2294828125 -3.5264031250 -4.8498764000
2.2221459375 -2.9656025000 -4.0762275360
2.2274537500 -2.3593159375 -4.7934574880
-1.6751725000 -5.7451117500 -6.4746212855
-0.6253812500 -4.7322037500 -6.4687826664
1.7585790625 -5.1122565625 -6.4758013565
0.5492712500 -2.6577628125 -6.4142179238
6.7184946875 -6.3882842500 -4.0244454400
6.6691387500 -5.2128900000 -4.1155498080
2.2610743750 -5.1506878125 -4.0239532640
6.6761800000 -4.6452496875 -4.8957394320
6.6360018750 -3.5320603125 -4.8796530480
2.2605637500 -6.2549305000 -4.0145889680
3.4111631250 -6.4586362813 -4.0400137440
4.4630909375 -6.5927129688 -4.0682232000
5.5381581250 -6.5114228125 -4.0933500800
2.7320587500 -5.8156868438 -5.6512101640
3.3236178125 -5.9078788438 -4.8821786880
3.3349993750 -5.3733740625 -4.0336672640
3.8948056250 -5.9637089688 -5.6601962616
4.4710593750 -6.0231363125 -4.9055052400
5.0461171875 -5.5040201563 -6.4706867399
4.4912693750 -5.5195969063 -4.0257017840
5.0682084375 -6.0471934688 -5.6644250896
5.6179365625 -5.9392406250 -4.8681516720
5.6140128125 -5.3694234375 -4.0708913120
6.1975900000 -5.9490271563 -5.6529936544
2.8050378125 -4.6425353125 -5.6469152808
3.3648843750 -4.8357665625 -4.8601473360
3.3299468750 -4.2319525000 -4.1203290960
3.9321887500 -4.8161478125 -5.6899185112
4.4615590625 -4.9489371875 -4.8086113280
4.4664637500 -4.3365500000 -4.0860192480
4.9754359375 -4.8997156250 -5.7268485488
5.5146559375 -4.8191712500 -4.9169807120
6.1696803125 -4.2634634375 -6.4283995867
5.6320459375 -4.2974334375 -3.9931922640
6.1270296875 -4.8547537500 -5.6652993496
2.7927962500 -2.9946409375 -6.4709873817
2.7929306250 -3.5796156250 -5.6754433560
3.3468109375 -3.6357440625 -4.8633205760
3.8805887500 -3.2306034375 -6.4355424852
3.3759568750 -3.0673109375 -4.0955778240
3.9442153125 -3.8186956250 -5.6481081600
4.4919815625 -3.7670956250 -4.8579454960
4.4495593750 -3.1980712500 -4.0486915840
5.0439403125 -3.7609009375 -5.7055088336
5.5930637500 -3.7680496875 -4.8563912560
5.5383865625 -3.1852518750 -4.0572528560
6.1143984375 -3.6467493750 -5.7482335960
2.8301525000 -6.4033261875 -3.2350728480
3.9502621875 -6.5182759375 -3.1738357920
5.0338084375 -6.6086083219 -3.2108267040
6.1141968750 -6.4571756250 -3.2999882720
2.8043121875 -5.2261393750 -3.1824359200
2.7737015625 -5.8309961875 -2.4578492320
3.9183884375 -5.3564159375 -3.2682170160
3.9080684375 -5.9103473125 -2.4473710640
5.0662600000 -5.4811804375 -3.2469627840
5.0269687500 -6.0208196875 -2.4284740960
6.1699625000 -5.3937856250 -3.2002449200
6.1987725000 -5.9590528750 -2.3908744400
2.8184753125 -4.0709443750 -3.2499546960
2.8079403125 -4.6306968750 -2.4523057760
3.8925615625 -4.2875971875 -3.2903260800
3.9560940625 -4.8167121875 -2.4017411680
5.0143106250 -4.3476762500 -3.2810135920
5.0239050000 -4.8988421875 -2.4632113600
6.2057600000 -4.2380934375 -3.2316664720
6.1168037500 -4.8074000000 -2.4491972960
2.8252881250 -3.0183312500 -3.3097281760
2.7802993750 -3.5306359375 -2.3909910080
3.9097078125 -3.2116162500 -3.2086378160
3.9177837500 -3.7585762500 -2.4044222320
4.9988037500 -3.2428853125 -3.1993512320
5.0717962500 -3.8195153125 -2.4217649600
6.0977628125 -3.0794450000 -3.2777885440
6.1551275000 -3.6481334375 -2.4799064880
2.7645775000 -2.4820406250 -5.6055245744
3.3838984375 -2.4863540625 -4.8767777040
3.9177568750 -2.6622106250 -5.6789844328
4.5068165625 -2.6670481250 -4.9113854480
5.0894262500 -2.6514203125 -5.6674662192
5.6365206250 -2.6213875000 -4.8469233440
6.1851737500 -2.5100712500 -5.6832909728
2.7097121875 -2.4892968750 -2.3953428800
3.8425875000 -2.6257009375 -2.4339527920
5.0082771875 -2.6667256250 -2.4131130240
6.2129356250 -2.5552346875 -2.4109370880
2.8219153125 -5.2507703125 -6.4106872086
3.9346612500 -6.5527095313 -6.4255563637
5.0021765625 -6.6352683219 -6.4558258353
3.9106887500 -5.4260960938 -6.4467402663
-5.6182711563 -1.7272293750 -3.9745802400
-4.5383678125 -2.0835246875 -4.8781765200
-4.4365921875 -1.5570165625 -4.0077891680
-3.9240859375 -2.0380656250 -5.5962936840
-3.3232415625 -1.9941384375 -4.8541376080
-3.3666984375 -1.3933478125 -4.1071698640
-2.7895981250 -1.8273925000 -5.6813261544
-6.6886985094 -1.3339675000 -4.8845877600
-6.2182676250 -0.6797628125 -6.4676371915
-6.1029913438 -1.2362768750 -5.6473919144
-5.5298026875 -1.1946340625 -4.8337123040
-5.6725331250 -0.6096862500 -4.0834677040
-5.0280168750 -1.0650428125 -5.7421357944
-4.4987675000 -0.9938375000 -4.8373647680
-4.5329121875 -0.4580843750 -3.9859132400
-3.9476418750 -0.9470615625 -5.6886958424
-3.4091206250 -0.8094750000 -4.8545261680
-3.3234700000 -0.2812737500 -4.0032818720
-2.8233934375 -0.7663406250 -5.6105836256
-6.6739398344 0.3195437500 -4.0207541200
-6.1632907813 -0.1395081250 -5.6181242800
-5.5705747500 -0.0506996875 -4.8990421920
-5.0711646875 0.6015834375 -6.4552174798
-5.5553661875 0.4974293750 -4.0742588320
-4.9814021875 0.0440212500 -5.6421074984
-4.4102412500 0.0857043750 -4.8366394560
-4.5233178125 0.6741728125 -4.0903840720
-3.9034190625 0.2069778125 -5.7198117272
-3.3631643750 0.2920103125 -4.8100490000
-2.8103456250 0.9099740625 -6.4635083270
-3.4052371875 0.8460115625 -4.0090584640
-2.8362934375 0.3337337500 -5.6921397792
-6.2142632500 1.0177159375 -5.6965952672
-5.6564954688 1.0722990625 -4.8644862560
-5.5462045000 1.6067756250 -4.0148739120
-5.0736775000 1.1593606250 -5.6247518184
-4.4776437500 1.2383328125 -4.9054404800
-3.9251609375 1.8693981250 -6.4223634366
-4.4082525000 1.7692215625 -4.0578745520
-3.8610506250 1.3063803125 -5.6080618712
-3.2814912500 1.3977150000 -4.8488661440
-2.8358500000 2.0766312500 -6.4751765118
-2.7544859375 1.5005521875 -5.7160142008
-6.2351316875 -1.7845806250 -3.2674269440
-5.0206531250 -1.6595850000 -3.2607307600
-5.1049196875 -2.2174293750 -2.4584191200
-3.8627168750 -1.5202650000 -3.1998693120
-3.9262225000 -2.0660559375 -2.3789845040
-2.8258928125 -1.3385093750 -3.2241931680
-2.7135687500 -1.8954400000 -2.3826499200
-6.1791443438 -0.6862262500 -3.1625934560
-6.1103886875 -1.2700587500 -2.3929467600
-5.1275618750 -0.5059487500 -3.2439449680
-4.9969493750 -1.0837478125 -2.4721611920
-3.9305359375 -0.3578137500 -3.2894323920
-3.9644118750 -0.9116537500 -2.4724461360
-2.7541500000 -0.2274700000 -3.2212271600
-2.8364278125 -0.7848978125 -2.4014562240
-6.1118533750 0.4537709375 -3.2436859280
-6.1941620938 -0.0971934375 -2.4076990880
-5.0268075000 0.6066225000 -3.1694968720
-4.9970434375 0.0299387500 -2.3920530720
-3.9784675000 0.7608178125 -3.2261748240
-3.8739371875 0.1862034375 -2.4394962480
-6.1642650000 1.5402465625 -3.2994313360
-6.1768465313 1.0019134375 -2.4217779120
-4.9818590625 1.7414328125 -3.2530372720
-5.1039925000 1.1981009375 -2.4183715360
-2.8212971875 2.0538412500 -3.2083528720
-3.9047225000 1.3061518750 -2.3847870000
-2.8218481250 0.9439978125 -3.2755867040
-2.7427146875 1.4717287500 -2.4299117680
-2.2918596875 0.4301343750 -4.8690324080
-2.2677125000 2.0876231250 -4.0497666000
-6.7043193344 2.0539756250 -4.8288941600
-6.1444997813 2.1031031250 -5.6528188024
-5.6048094688 2.1839565625 -4.7734077920
-3.3739950000 1.9772878125 -4.0769398960
-6.1346433750 2.0581412500 -2.4059246640
-3.8859771875 1.8799331250 -3.1688104160
-2.8365756250 0.3697865625 -2.4780932080
-2.2620150000 -1.2623993750 -4.0597396400
-6.6988371031 -0.7732878125 -4.0968212160
-6.7165258384 0.8878021875 -4.8041558400
-5.0004834375 -1.6869706250 -6.4382902520
-6.1341811250 0.4202578125 -6.4239548489
-4.9751806250 1.7244343750 -6.4345879228
-2.2319150000 -1.8446193750 -4.8245163840
-2.2364837500 -0.6947993750 -4.8587096640
-2.2105225000 -0.1372103125 -4.0498831680
1.6743528125 -1.7898212500 -3.2092724640
-1.6341881250 1.0080006250 -3.2315240000
-1.6848071875 -1.2683387500 -6.4525764375
-1.7095187500 -1.8462990625 -5.6785077992
-1.1317868750 -1.2845040625 -3.9945910800
-0.5788471875 -1.9697090625 -5.6642955696
-0.5573068750 -1.3547956250 -3.2165644400
-1.1437193750 -1.8125843750 -4.8672709360
-0.0022575000 -2.0377834375 -4.8843934800
-0.0039506250 -1.5019362500 -4.0222436000
0.5733915625 -2.0641746875 -5.6841380336
1.1444987500 -1.6392406250 -4.0715000560
-1.6881396875 -0.1161940625 -6.4505954291
-1.6886368750 -0.6966806250 -5.6757308904
-1.1187121875 -0.7565043750 -4.8811036720
-0.5379434375 -0.2034437500 -6.4652755756
-0.5466778125 -0.2201868750 -3.2328062480
-0.5544984375 -0.7843065625 -5.7059660392
-0.0412396875 -0.9518318750 -4.8250474160
0.5367340625 -0.9593300000 -5.6308612768
0.0042596875 -0.3503559375 -4.0770046560
1.0994428125 -1.0692621875 -4.8293215760
1.6313931250 -0.6783921875 -6.4517810552
1.1182821875 -0.4722743750 -4.0891277280
1.6695153125 -1.2184721875 -5.5941669656
-2.2073512500 0.9525037500 -3.9879208000
-1.7087259375 0.4539456250 -5.6659184552
-1.1217356250 -0.2033900000 -4.0321000720
-1.1705540625 0.3505843750 -4.8479465520
-0.5888581250 0.3343653125 -5.6260340664
-0.0132762500 0.2181175000 -4.8388672000
0.5130706250 0.6344246875 -6.4606759707
0.0016125000 0.8166640625 -4.0912000480
0.5575621875 0.0918990625 -5.6027437800
1.1673559375 0.0998271875 -4.8585412880
1.6961215625 -0.0935250000 -5.6856754360
1.0958146875 0.6604665625 -4.0436921120
-2.2207753125 1.5031321875 -4.8249178960
-1.6803862500 1.5653343750 -5.6688028656
-1.0929256250 0.9260856250 -4.0805664560
-1.1236034375 1.5150646875 -4.8479983600
-0.5472959375 1.4022031250 -5.6129810408
0.0451096875 1.3885237500 -4.8569481920
0.0093525000 1.9464084375 -4.0436403040
0.5925400000 1.1947415625 -5.6724449680
1.1676918750 1.1998343750 -4.8791738240
1.7064684375 1.0751343750 -5.7240522120
-1.7203762500 -1.2842756250 -3.2373264960
-0.5559228125 -0.7797781250 -2.4389522640
0.5729750000 -1.5231540625 -3.2593578480
0.5710668750 -2.0703021875 -2.4019224960
1.6749306250 -1.2200040625 -2.4175167040
-1.6778465625 -0.7342115625 -2.4301319520
-0.5410206250 0.3170846875 -2.3767049520
-0.5521603125 0.8485109375 -3.2413027600
0.5571321875 -0.4587696875 -3.2600961120
1.6502728125 -0.6842106250 -3.2490480560
-1.6749575000 1.5963346875 -2.4488994000
-1.6630787500 -0.1330984375 -3.1895206640
-0.5714296875 1.9387490625 -3.2478823760
-1.7205912500 0.4562837500 -2.4386543680
-0.5759446875 1.4067046875 -2.3912241440
0.5333478125 0.6142684375 -3.2355391200
1.6252790625 0.4516209375 -3.1986000160
1.6803325000 -0.1391721875 -2.4247568720
-1.7061459375 2.1410506250 -3.2796665840
0.5258765625 1.7381675000 -3.1995584640
1.1121278125 1.7353321875 -3.9940600480
1.7099756250 1.0382887500 -2.4672653360
2.2363762500 -1.7486353125 -4.0936350240
2.2239600000 -0.6522831250 -4.0186947520
2.2085203125 0.4348643750 -3.9916380240
1.6750650000 1.6392003125 -3.2057236160
2.2336081250 1.4996921875 -4.0100687200
1.7170706250 1.6815418750 -6.4627574866
-1.6486871875 -1.8508140625 -2.4464773760
-0.5234981250 -1.9164159375 -2.4426306320
0.5559362500 -0.9661025000 -2.3970007360
0.5611096875 0.0878275000 -2.3693223120
0.5557078125 1.1756468750 -2.4060541840
-1.1093865625 2.0684075000 -4.0525124240
1.6891475000 2.2380693750 -2.4804634240
-0.5681106250 -1.3947587500 -6.4219217734
2.1987109375 2.0581143750 -4.8350852160
0.5321653125 1.7723659375 -6.4510662343
1.6315006250 0.4857387500 -6.4523111806
6.6813131250 1.4839031250 -4.0509452320
2.2472606250 0.9560915625 -4.8676335920
6.6607537500 -1.9010568750 -4.0715259600
6.6616675000 -0.2039678125 -4.9013865040
2.2668659375 -0.1014934375 -4.8691489760
3.8960015625 -2.0913318750 -6.4469920532
3.3230937500 -1.9501843750 -4.0240698320
5.0405540625 -2.0739168750 -6.4494617406
4.4648378125 -2.1414134375 -4.0000438720
5.5784034375 -2.0450396875 -4.0706063680
2.2849796875 -1.1807934375 -4.8802876960
2.7391537500 -0.8052556250 -6.4408474949
2.7836856250 -0.8118265625 -3.2063064560
2.8309050000 -1.3903109375 -5.6726522000
3.4071318750 -1.4040171875 -4.8527387920
3.3449296875 -0.8593684375 -4.0135787120
3.9314496875 -1.4821025000 -5.7148096648
4.4799012500 -1.6145559375 -4.8402919200
4.4742575000 -1.0353862500 -4.0354546400
5.0029828125 -1.4926912500 -5.6914662752
5.5738346875 -1.4900575000 -4.8961798000
6.1570490625 -0.8446543750 -6.4289677910
5.6436559375 -0.9595046875 -4.0269322240
6.1695996875 -1.4277209375 -5.6372492032
2.8090153125 -0.2130918750 -5.7211975912
3.3539193750 -0.3149884375 -4.8638257040
3.3440025000 0.2168275000 -4.0041496560
3.9130000000 -0.3842184375 -5.6668535896
4.4633059375 -0.4828228125 -4.8226383440
4.4914978125 0.1227784375 -4.0804887440
4.9982528125 -0.3734146875 -5.6566681368
5.5762131250 -0.4076803125 -4.8327538560
5.6157865625 0.1936612500 -4.0778853920
6.1019687500 -0.2573818750 -5.6941836048
2.8005362500 0.9587925000 -5.6910816008
3.3309009375 0.7672275000 -4.8389319600
3.3729334375 1.3414118750 -4.0686117600
3.9044671875 0.7306640625 -5.6622206592
4.4449771875 0.6972853125 -4.8443070400
4.5170156250 1.2845712500 -4.0772507440
5.0339562500 0.6676287500 -5.6328519992
5.6005350000 0.7627662500 -4.8495655520
5.5941656250 1.3367625000 -4.0549085440
6.1621687500 0.8531065625 -5.6627426248
2.7470953125 -1.9400256250 -3.2118499120
3.8833568750 -2.0572275000 -3.2186108560
5.0375440625 -2.1084781250 -3.2081715440
6.1205662500 -1.9872718750 -3.1989497200
2.8278278125 -0.2224175000 -2.4702831520
2.7638787500 -1.3889000000 -2.4180736400
3.9186437500 -0.9174856250 -3.2205018480
3.9038221875 -1.5031456250 -2.4342765920
5.0501350000 -0.9495475000 -3.2801846640
5.0164606250 -1.5129953125 -2.4588983440
6.2059481250 -0.8579575000 -3.2363291920
6.1171262500 -1.4081828125 -2.4099397840
2.8293059375 1.5265000000 -3.2596168880
2.7833228125 0.3666556250 -3.2143237440
3.9565509375 0.2322403125 -3.2695251680
3.9428984375 -0.3363540625 -2.4754121440
5.0662196875 0.1359203125 -3.2616374000
5.0488450000 -0.4262106250 -2.4180347840
6.1666165625 0.2480965625 -3.2659633680
6.1185506250 -0.3034859375 -2.4176850800
3.9526943750 1.3308231250 -3.2794852560
3.8993743750 0.7815921875 -2.4277487840
5.0459156250 1.2196278125 -3.2108914640
5.0016256250 0.6664731250 -2.4054324880
6.1435578125 1.3313740625 -3.2010090880
6.1829296875 0.7744165625 -2.4071032960
2.7765771875 2.0529140625 -5.6296308368
3.3377271875 1.9216834375 -4.8273658240
3.8936768750 1.8259815625 -5.6440088520
4.4810165625 1.8413943750 -4.8811166240
5.0390490625 1.7789906250 -5.6857881184
5.6033703125 1.8978050000 -4.8972289120
6.1983962500 1.9229600000 -5.6521025568
3.9124087500 1.8360193750 -2.3582613040
5.0602400000 1.8166290625 -2.4465162320
6.1730396875 1.9434790625 -2.4688454800
2.8313618750 0.9571800000 -2.4726274640
2.7662168750 2.0656796875 -2.4017282160
2.7687968750 -1.9434656250 -6.4690697345
2.8165671875 0.3786150000 -6.4615670683
5.0691759375 1.2149650000 -6.4734348305
-5.6146416875 6.6585768750 -4.8606783680
-5.0479446875 2.2761781250 -2.4014173680
-6.1686805625 6.6099600000 -5.6622828288
-6.2154296250 6.6212609375 -2.4711509360
-3.8765575000 3.0359746875 -3.2620648160
-6.7136021878 2.6201512500 -4.0233315680
-5.6214115000 2.8080478125 -4.0665782960
-5.0970721875 2.3068290625 -5.6752879320
-4.5352368750 2.3398450000 -4.8490345200
-3.8654581250 3.0039128125 -6.4440740971
-4.4428943750 2.8854746875 -4.0251059920
-3.9624768750 2.4443081250 -5.6430206144
-3.3756478125 2.5256184375 -4.9150379120
-2.7565821875 2.6030587500 -5.6117363536
-6.1337390313 3.7514275000 -6.4141889114
-6.7015573906 3.6864034375 -4.0169980400
-6.1260715938 3.1803203125 -5.6463415072
-5.5738199063 3.3652337500 -4.8525833680
-5.6025103125 3.9205250000 -4.0223990240
-4.9921387500 3.3799075000 -5.6413511016
-4.4556465625 3.4699925000 -4.7777467120
-4.5183056250 4.0881578125 -4.0770953200
-3.9536484375 3.5921125000 -5.6960875488
-3.3982093750 3.6149025000 -4.8403566800
-3.3416912500 4.1813334375 -4.0540666640
-2.8362934375 3.7355443750 -5.6423989184
-6.6875170844 4.2189853125 -4.8625693600
-6.1647178438 4.3683834375 -5.7118410664
-5.5972965625 4.4543296875 -4.9114890640
-5.6098216563 4.9653175000 -4.0190574080
-4.9959818750 4.4727525000 -5.6515054696
-4.4500431250 4.6539840625 -4.8682034800
-3.9486631250 5.1960259375 -6.4718498554
-4.4905437500 5.1915646875 -4.0246267680
-3.8473040625 4.6455453125 -5.6344567520
-3.3167512500 4.7749350000 -4.7990009440
-3.4013806250 5.3772037500 -4.0807995920
-2.7883350000 4.8802850000 -5.7076264856
-6.1455640313 5.5259568750 -5.6811253984
-5.5781306563 5.5148575000 -4.8599401040
-5.5765732500 6.0903184375 -4.0775486400
-5.0604281250 5.6574428125 -5.7389729160
-4.4997081250 5.7243078125 -4.9133023440
-3.8990384375 6.3484796875 -6.4077469751
-4.4645018750 6.2541215625 -4.0299888960
-3.8937575000 5.7528490625 -5.6716056784
-3.3501031250 5.9377893750 -4.8838365440
-2.8317918750 6.4953918750 -6.4720578904
-3.3705684375 6.4615965625 -4.0321389280
-2.7363990625 5.9339462500 -5.6443546704
-6.1319330313 2.6150853125 -3.2081844960
-5.0425428125 2.8166478125 -3.2854820320
-3.9759815625 2.4745962500 -2.4411541040
-3.2865034375 3.0485521875 -4.0373067760
-2.7486675000 3.1729431250 -3.1893911440
-6.1575260938 3.7999234375 -3.2031202640
-6.1608478438 3.2104337500 -2.4671617200
-5.0233271875 3.8897128125 -3.2102309120
-5.0102525000 3.3403340625 -2.4022462960
-3.9261956250 4.1063521875 -3.2923984000
-3.9090090625 3.5632353125 -2.4167266320
-2.7824628125 4.2985890625 -3.2667145840
-2.8364278125 3.7561978125 -2.4256894160
-6.1990923125 4.9485475000 -3.2284802800
-6.1205917813 4.3837559375 -2.4386802720
-5.0587081250 5.0848171875 -3.2169530000
-5.0148615625 4.4988346875 -2.4829890640
-3.9169640625 5.1928143750 -3.2167198640
-3.8860040625 4.6332096875 -2.4175555600
-2.8266721875 5.3720840625 -3.2819590880
-2.7682056250 4.8236862500 -2.3992932400
-6.1092693438 6.0396053125 -3.2280399120
-6.1635823750 5.4980606250 -2.3873774000
-5.0309462500 6.2269643750 -3.2161240720
-4.9961700000 5.6551315625 -2.4278135440
-3.9254968750 6.3825706250 -3.1980819360
-3.8770681250 5.7846825000 -2.4633149760
-2.8129121875 6.5002831250 -3.2188698960
-2.7493796875 5.8900459375 -2.4512437120
-2.2409718750 3.2361665625 -4.0988546800
-2.2460109375 3.7970343750 -4.9152580960
-2.2402865625 5.4233884375 -4.0257406400
-2.2567878125 6.5679678125 -4.0211556320
-2.8117431250 2.6112153125 -2.3958739120
-2.2414556250 4.8836309375 -4.8475968480
-6.7057171434 5.3700550000 -4.8870097840
-6.6810998719 5.9223496875 -4.0623300400
-2.7998375000 3.1558640625 -6.4397459273
-2.7488153125 4.2777475000 -6.4559172764
-6.1593052188 4.9436428125 -6.4587414600
-5.0132490625 5.0282856250 -6.4305475464
1.6990106250 6.6803187500 -2.4465421360
1.1116843750 2.2663553125 -4.8758581120
-2.2125381250 6.0118703125 -4.8060338800
1.7318115625 6.6779671875 -5.7089320472
-2.1809465625 2.6414765625 -4.8516378720
-1.6246878125 2.6516084375 -5.6553949552
-1.0594796875 2.6422559375 -4.8343210480
-0.5257018750 4.2517459375 -6.4725158213
-1.1473743750 3.2174212500 -4.0510618000
-0.5327565625 2.5149356250 -5.6976625120
0.0277887500 2.4961365625 -4.8755990720
-0.0005106250 3.0230612500 -3.9881150800
0.5704756250 2.3697031250 -5.7238397992
1.6749440625 2.2487521875 -5.6925322248
1.0763706250 3.3472006250 -4.8334921200
-1.6613050000 4.3197531250 -6.4467863754
-2.1896003125 4.3046493750 -4.0388998720
-1.6366875000 3.7594765625 -5.6434026984
-1.0693428125 3.7581596875 -4.8613130160
-1.1175700000 4.3191350000 -4.0394568080
-0.5289940625 3.6592462500 -5.7114006984
0.0097959375 4.1071853125 -3.9998236880
0.0126581250 3.5588681250 -4.8518321520
0.5510181250 3.5387790625 -5.7072431064
1.1617390625 3.9201890625 -4.0603742880
1.6452337500 3.3550884375 -5.6456343280
-1.6921709375 4.9222234375 -5.7054842248
-1.1510428125 4.8681912500 -4.8852742160
-1.0648412500 5.3847690625 -3.9926223760
-0.5512331250 4.8022534375 -5.6618152616
-0.0244562500 4.6554621875 -4.8344117120
0.0498800000 5.2405443750 -4.0760073520
0.5573203125 4.6354134375 -5.6372686312
1.1064975000 4.5011728125 -4.8303318320
1.6497756250 4.9804346875 -6.4403674938
1.1445793750 5.1054437500 -4.1148504000
1.6773090625 4.4148503125 -5.6143811520
-1.6913781250 6.0839625000 -5.6997050424
-1.1559475000 5.9300762500 -4.8376367600
-1.0852796875 6.5111809375 -4.0599339200
-0.5912634375 5.9291356250 -5.6478128544
-0.0216612500 5.8272793750 -4.8468456320
0.5336434375 6.2732162500 -6.4277721918
0.0049450000 6.4142696875 -4.0761886800
0.5545925000 5.7057909375 -5.6141998240
1.1672618750 5.6841968750 -4.8970734880
1.0471843750 6.2159187500 -4.0392107200
1.7403846875 5.5430225000 -5.6530467576
-1.6920096875 3.2234278125 -3.2205407040
-1.6360828125 2.6541078125 -2.3948766080
-0.5963428125 3.0638575000 -3.2293351120
-0.5399725000 2.5003828125 -2.4267126240
1.1416231250 2.7923796875 -3.9979586000
0.5831471875 2.3485121875 -2.4805411360
1.7486353125 2.8123881250 -3.2576999920
-1.6672846875 4.3476628125 -3.1857386800
-1.6810312500 3.7735725000 -2.3967805520
-0.5579787500 4.2131400000 -3.2176653600
-0.5091334375 3.6371012500 -2.4451821760
0.6166737500 4.1131112500 -3.2593708000
0.5740903125 3.5347209375 -2.4830149680
1.7330881250 3.8917553125 -3.2570653440
1.6356528125 3.3571175000 -2.4088388640
-1.6600956250 5.4985309375 -3.2712348320
-1.6770806250 4.9418018750 -2.4518395040
-0.4762653125 5.3874834375 -3.2343993440
-0.5621846875 4.8185262500 -2.4808260800
0.6110837500 5.1862300000 -3.2400593680
0.5248553125 4.6489450000 -2.3944362400
1.6483243750 4.9632884375 -3.2009831840
1.6770671875 4.4210315625 -2.3590902320
-1.6476659375 6.6319571875 -3.2602515360
-1.6898059375 6.0481381250 -2.4723425200
-0.5403487500 6.4894793750 -3.2179762080
-0.6397056250 5.9450053125 -2.3966121760
0.5065937500 6.2825284375 -3.1682275760
0.5528859375 5.7311475000 -2.3520443440
1.6075012500 6.1119662500 -3.2239341280
1.7317578125 5.5405768750 -2.4251195280
2.1986975000 3.2247312500 -4.8276378160
2.2015596875 4.9437368750 -4.0513985520
2.1721718750 6.0280759375 -4.0029839760
0.5748965625 2.9412403125 -3.2195174960
-1.7359234375 3.2077596875 -6.4751739137
0.6169693750 2.9570831250 -6.4740902146
-1.6239084375 5.4931559375 -6.4635054776
-0.5113103125 5.3616968750 -6.4665156908
1.6088584375 6.0967415625 -6.4751578221
2.2400984375 6.6018303125 -4.7838989120
6.7045196875 3.1547756250 -4.8904809200
6.7134421875 4.8036509375 -4.0920160240
2.2788253125 2.6297725000 -4.0738314160
2.2753450000 3.8178759375 -4.1097991200
6.7060918750 6.4968565625 -4.8394111840
2.7587187500 6.5263653125 -5.7103101400
3.2909915625 6.4274518750 -4.8437242000
3.8620987500 6.3190918750 -5.6258164728
4.4763806250 6.2978875000 -4.9099477760
5.0577809375 6.2523343750 -5.6644859640
5.6243059375 6.3411965625 -4.8311089520
6.1528968750 6.4145250000 -5.6882917400
2.7555475000 6.4783531250 -2.4277358320
3.8831687500 6.3294790625 -2.4356236000
5.0790256250 6.2738881250 -2.4021167760
6.1761034375 6.4222650000 -2.4558028160