ITEM: TIMESTEP
149000
# source: voids-relax.149000.cfg
ITEM: NUMBER OF ATOMS
2298
ITEM: BOX BOUNDS pp pp pp
-6.7187500000 6.7187500000
-6.7187500000 6.7187500000
-6.4760000000 6.4760000000
ITEM: ATOMS x y z
-6.0837905000 -6.3946751250 -6.4245444239
-5.5699082500 -6.3207231875 -4.0853846000
-5.0147271875 -5.6755995625 -5.5969101992
-3.8534987500 -5.4737562188 -5.6757606800
-4.4830321875 -6.1805472188 -4.0592992720
-3.8937306250 -6.6063555250 -5.7218231728
-3.3646693750 -6.5047725938 -4.8733454240
-2.7766712500 -5.8816945313 -6.4188957977
-3.2618321875 -5.9939366250 -3.9924669520
-2.7729356250 -6.4552056875 -5.6558482752
-6.6884399719 -5.3582971875 -3.9897858880
-6.1982780000 -5.8661043438 -5.6572380248
-5.6182644375 -5.7627820625 -4.8843805280
-5.6351715000 -4.6096403125 -4.8034952880
-4.4049603125 -5.6189631875 -4.8704441760
-4.4432168750 -5.0387400000 -4.1149669680
-3.9359378125 -4.9514231250 -3.2459784320
-3.3146684375 -5.4390364063 -4.7898050240
-2.7825703125 -5.2900615625 -5.6855782960
-6.7041044688 -4.8240893750 -4.8550312960
-4.5396712500 -4.4435125000 -4.8714155760
-5.6265741875 -4.0196265625 -4.0452722560
-3.9451693750 -4.3932696875 -5.6191125176
-3.8900084375 -3.8436087500 -6.4733030050
-4.4583071875 -3.8978021875 -4.0687153760
-3.3490550000 -4.3087881250 -4.9051684880
-3.3522262500 -4.8316412500 -4.0397935600
-2.8274515625 -3.6004706250 -6.4596762058
-3.9267062500 -3.8248231250 -3.2135077680
-2.7716859375 -4.1668343750 -5.6633526640
-6.1489099688 -3.6519093750 -5.6479384888
-5.5820530625 -3.4789015625 -4.8754047920
-6.1411121875 -4.7387343750 -5.6982829128
-5.6215042188 -2.9155209375 -4.0543645600
-5.0360928125 -3.4776787500 -5.7040180584
-4.4987003125 -3.3118868750 -4.8301505040
-4.5138981250 -2.7403631250 -4.0461141360
-3.9566987500 -3.2674221875 -5.6787759056
-3.3937078125 -3.2077865625 -4.8722963120
-3.3316265625 -2.6815203125 -4.0522274800
-2.8183140625 -3.0346846875 -5.6504641288
-6.6681291906 -6.4616637500 -4.0438475360
-6.1253244688 -6.3972914063 -3.2140388000
-5.0498662500 -6.1958135625 -3.2221078960
-3.9405065625 -6.0304691563 -3.3028765680
-3.8984471875 -6.5871159813 -2.4760597440
-2.7228943750 -5.7892835000 -3.1712583440
-2.7919765625 -6.3190260313 -2.4758395600
-6.0781964688 -5.2959337500 -3.2566897360
-6.1230857813 -5.8292076563 -2.3916515600
-5.5290972188 -5.2039675000 -4.0824704000
-4.9401087500 -5.6319236563 -2.4103672000
-4.9933884375 -5.0826000000 -3.2317700880
-2.7963303125 -4.3466953125 -2.4497542320
-2.2602546875 -4.6820550000 -4.0332268960
-6.1592837188 -4.2056418750 -3.2337128880
-6.1529479375 -4.7648300000 -2.4144082240
-5.0320078125 -4.0156087500 -3.2989909680
-5.0409975000 -4.5396981250 -2.3921825920
-3.9194231250 -4.3881634375 -2.4312717280
-3.3702459375 -3.7870906250 -4.0416716000
-6.1638255938 -3.0493987500 -3.2108785120
-6.1535862188 -3.6311618750 -2.4650505440
-5.0386728125 -2.9221725000 -3.2320161760
-5.0448809375 -3.4882406250 -2.4180088800
-3.9081625000 -2.7291696875 -3.2840961680
-3.9516865625 -3.2706337500 -2.3956148720
-2.8015440625 -2.4864346875 -3.2227814000
-2.8360381250 -3.6939015625 -3.1488254800
-2.7747765625 -4.8689437500 -3.1688492720
-2.3193259375 -3.5884843750 -3.9918452560
-6.1684427188 -2.5176365625 -5.7030065072
-5.6130963750 -2.3675934375 -4.9009720400
-5.0130878125 -2.3535781250 -5.6511350424
-6.1555333125 -2.4483796875 -2.4651412080
-5.0354612500 -2.3500440625 -2.4716301600
-3.7362700000 -5.4817098750 -2.4410763920
-2.7725996875 -3.1035115625 -2.4722907120
-5.0824118750 -4.6136043750 -5.6807808752
-2.8253284375 -4.7175434375 -6.4739275375
-2.2577687500 -5.2314875000 -4.8461332720
-6.7066257603 -3.1487690625 -4.0588459520
-6.1754853125 -3.0973840625 -6.4751674092
-2.2368196875 -3.0474637500 -4.8583470080
-2.2271715625 -2.4816509375 -4.0431351760
-1.6458921875 -4.6130400000 -3.2316923760
-1.0764243750 -5.2292031250 -4.8181051440
-2.2254784375 -6.3492241250 -4.8895742800
-1.6862315625 -5.7556507813 -6.4575396439
-1.5985115625 -6.3121917188 -5.6232416152
-1.1013912500 -6.1647272500 -4.6863833040
-0.5715506250 -5.7987797813 -6.4629974872
-1.5775625000 -5.7714909063 -3.3199084480
-0.5611500000 -6.3482109375 -5.6099088264
0.0719040625 -6.3464318125 -4.8805208320
0.5497818750 -5.9401705000 -6.4637582877
-0.1491025000 -5.8286741875 -3.9951868720
1.1536765625 -6.5529957500 -4.8433356400
0.5974446875 -6.5011915000 -5.6919442040
1.1423621875 -6.0107361875 -3.9994092240
1.6960275000 -6.6072733063 -5.7166074024
-1.6634281250 -5.1926934375 -5.6273784840
-0.5317084375 -5.2239221875 -5.6815398624
-0.5597659375 -4.6632962500 -6.4623277393
-0.6120915625 -4.1009100000 -5.6465785288
-1.1348506250 -4.8350140625 -4.0157676000
0.0509953125 -5.2917143750 -4.8425844240
0.0114487500 -4.7207415625 -4.0251966560
0.5600750000 -5.3334512500 -5.7354655144
1.0697728125 -5.4541374688 -4.8088962720
1.7337465625 -4.9846943750 -6.4663382872
1.1368528125 -4.8343287500 -4.0875993920
-2.2107643750 -4.1192656250 -4.8413280800
-1.6917006250 -3.5273034375 -6.4608057498
-1.6634281250 -4.0882653125 -5.6714256456
-1.1492287500 -4.1355921875 -4.7622302160
-0.5042153125 -3.5445706250 -6.4663894217
-1.0929121875 -3.5484137500 -4.0642728400
-0.0492215625 -4.1898528125 -4.8466384000
1.0404118750 -3.7731559375 -4.0411276160
0.0298178125 -3.5848293750 -4.0886096480
0.5268843750 -4.2405659375 -5.6080022920
1.6115056250 -3.8589140625 -6.4400609199
1.1922690625 -3.1973590625 -4.8440998080
1.1591053125 -4.2984815625 -4.9160352160
-1.6583487500 -2.3594100000 -6.4487048257
-1.6933937500 -2.9595018750 -5.6881712864
-1.1664959375 -2.9518290625 -4.8253582640
-0.5534637500 -2.4593312500 -6.4299691101
-1.1253368750 -2.3606059375 -4.0602577200
-0.5986137500 -3.0222550000 -5.6044249496
0.0200218750 -3.0281003125 -4.8956358160
0.6124543750 -3.1249175000 -5.6247854936
1.1150437500 -2.6639306250 -4.0010800320
1.7192340625 -2.6891393750 -6.4748283284
1.7354531250 -2.7393553125 -3.2742267440
1.7416343750 -3.2624906250 -5.7106455968
-2.0982790625 -5.8132815313 -4.0577191280
-0.6486012500 -5.7820433750 -3.2645127440
-0.4940834375 -6.3383894688 -2.4172835680
0.5436140625 -5.8807915313 -3.3234443440
0.5948512500 -6.4227259063 -2.4930916240
1.7571815625 -6.0862965938 -3.2382072320
1.6263809375 -6.6538943094 -2.4303521360
-1.7774050000 -5.2315546875 -2.4464126160
-0.5378628125 -4.5996293750 -3.2427533840
-0.5826365625 -5.1967381250 -2.4438351680
0.5807284375 -4.8069565625 -3.2317441840
0.4614303125 -5.3664268750 -2.4241222240
1.6395093750 -4.9864950000 -3.1710122560
1.6342418750 -5.5537899688 -2.4057044800
-1.6647987500 -3.5555625000 -3.3088862960
-1.7038346875 -4.0671684375 -2.4289792240
-0.5315606250 -3.5481046875 -3.2452531200
-0.6128306250 -4.1094025000 -2.3838544560
0.5330790625 -3.6769434375 -3.1526851760
0.5630984375 -4.2698462500 -2.3923639200
1.6311243750 -3.8172578125 -3.2458489120
1.7442950000 -4.3779912500 -2.4614369360
-1.6649868750 -3.0231687500 -2.4200423440
-0.0541128125 -2.5057846875 -4.0396381360
-0.5834831250 -3.0175653125 -2.4117530640
0.5471615625 -2.5136187500 -3.2621813840
0.5806478125 -3.0708584375 -2.4531735600
1.6193800000 -5.5251654063 -5.6293290552
2.2051206250 -3.9414606250 -4.0067530080
2.2116915625 -3.3904290625 -4.7822151520
-1.6818509375 -2.4601375000 -3.2206184160
-0.5763881250 -2.4382343750 -3.2108137520
1.6677953125 -3.2674759375 -2.4138383360
-1.6793650000 -6.3354856250 -2.4294714000
1.7225531250 -4.4231143750 -5.6499654768
2.2295500000 -5.5757374375 -4.8940297680
2.1755581250 -5.0429056250 -4.0421378720
-1.6809103125 -4.6723396875 -6.4721653920
0.5314934375 -2.5771243750 -6.4448856694
0.5462612500 -3.6894806250 -6.4330492252
6.7122596875 -2.5868262500 -4.8698095280
6.6917271875 -5.9009719688 -4.8449287360
6.1366509375 -6.0934036875 -5.7026555080
6.1941096875 -4.9029943750 -5.6992465416
6.6981503125 -4.2659762500 -4.0381357040
6.6981503125 -3.7103356250 -4.8733454240
2.2898306250 -6.1320405313 -4.0773673120
3.9272034375 -6.3882090000 -6.4276605456
3.3326612500 -6.3262392813 -4.0570326720
4.4503253125 -6.5429404688 -4.0362317600
5.6360771875 -6.5288069063 -4.0402209760
2.8588281250 -4.4874531250 -5.6985743328
2.8753831250 -6.2346936250 -6.4426017138
2.8110981250 -5.6728126250 -5.6301048800
3.3253781250 -5.2335300000 -4.0252096080
3.9773790625 -5.7999139063 -5.6729462104
4.4947496875 -5.9781421875 -4.7909318480
5.0313628125 -4.9257037500 -5.6371170928
4.5215440625 -5.3444431250 -4.1036469200
5.0373021875 -5.9921104688 -5.6475162536
5.6150743750 -5.9656990625 -4.8398256480
5.6324221875 -5.4045329375 -4.0124389360
2.3127818750 -4.4807343750 -4.8655353680
2.8375968750 -3.9452903125 -3.3153882000
3.3554512500 -4.6354671875 -4.7854661040
3.4075350000 -5.7529471563 -4.8801063680
3.4011521875 -4.0263453125 -4.0911870960
3.9139003125 -4.7336012500 -5.6530195584
4.4742171875 -4.7650987500 -4.8323393920
4.4807746875 -4.1688634375 -4.0702955200
5.6314009375 -4.8762000000 -4.9015807840
5.0067318750 -3.1531093750 -6.4173808022
5.5840337500 -4.3571093750 -4.0101334800
6.1437325000 -5.4965704063 -6.4439914634
2.9084393750 -2.3587112500 -5.4953859472
2.7725190625 -3.4254740625 -5.6568792544
3.3362893750 -3.4130981250 -4.8391132880
3.9152037500 -3.0652281250 -6.4215372286
3.3705012500 -2.8583309375 -4.1635887760
4.5058221875 -3.6450293750 -4.9041452800
4.3570421875 -2.5745712500 -4.8605877040
4.9895990625 -2.5830771875 -5.6399846656
5.5972159375 -3.8025571875 -4.8422217680
6.1524803125 -3.7464690625 -5.6777889632
5.5994196875 -3.2168300000 -4.0578356960
2.8095393750 -6.2274991875 -3.1620365200
3.9080012500 -6.3462611563 -3.2418078880
5.0572568750 -6.5505796875 -3.2791873600
6.1942306250 -6.6197961156 -3.2438802080
2.8415743750 -5.6101777500 -2.4605950560
3.9568868750 -5.2672312500 -3.3172014800
3.9314362500 -5.8029615313 -2.4224125600
5.0436581250 -5.4753324375 -3.2328062480
5.0393178125 -6.0101315000 -2.4179700240
6.1939618750 -5.4711412813 -3.1883938400
6.1809275000 -6.0525657813 -2.4479150480
2.8112190625 -4.5034303125 -2.4409339200
2.7687296875 -5.0456468750 -3.2631786880
3.9214521875 -4.2182328125 -3.2259546400
3.8871731250 -4.7607046875 -2.3981923200
5.0136387500 -4.3182212500 -3.2228850160
5.0493018750 -4.8881996875 -2.4518783600
6.1618193750 -4.2638665625 -3.2144014560
6.1642784375 -4.8642943750 -2.4830279200
2.8382150000 -2.9139353125 -3.1998693120
2.7411425000 -3.4662568750 -2.3871054080
6.1496181250 -3.1600296875 -3.2612747440
3.9290846875 -3.6307856250 -2.4480963760
4.4829784375 -3.1238962500 -3.9916380240
5.0477565625 -3.7408790625 -2.4302873760
5.0485628125 -3.1810459375 -3.2294257760
6.1467425000 -3.7092606250 -2.4088906720
2.2838912500 -2.7582081250 -4.0509840880
3.8904518750 -3.6763925000 -5.6469372992
3.8422112500 -2.4865959375 -5.6033939704
5.5510043750 -2.6839525000 -4.8713767200
6.1422006250 -2.6255531250 -5.6587559992
2.7994612500 -2.3108468750 -2.4705940000
3.8860040625 -3.0616268750 -3.2151138160
5.0462112500 -2.6466231250 -2.3949931760
6.2082190625 -2.6173025000 -2.4178664080
3.9437181250 -2.4748918750 -2.4480963760
2.7874078125 -5.1034550000 -6.4065898434
5.0504440625 -3.7635750000 -5.6951666616
5.0416290625 -4.3559000000 -6.4255647825
6.1698953125 -4.3272109375 -6.4652850694
-6.1803980625 -1.9325140625 -6.4341295515
-5.0333246875 -1.8063896875 -6.4678258892
-5.6035046875 -1.8478981250 -4.0143558320
-4.4601212500 -2.1816453125 -4.8462498400
-4.5048546875 -1.6153218750 -4.0393143360
-3.9130403125 -2.1626043750 -5.6819957728
-3.3718450000 -2.0767253125 -4.7917996320
-3.3653815625 -1.4768484375 -4.0733262880
-2.8518675000 -1.9412618750 -5.6653006448
-6.6928383344 -1.4866175000 -4.8719077520
-6.1848593125 -0.7352865625 -6.4664827797
-6.1444997813 -1.3292240625 -5.7056862760
-5.5968007188 -1.3093768750 -4.8632558160
-5.6274032813 -0.7486837500 -4.0283051360
-5.0466278125 -1.2149515625 -5.7167952064
-4.5101356250 -1.0678915625 -4.8789277360
-3.8907878125 -0.5300287500 -6.4551836751
-4.4672431250 -0.5410071875 -3.9970649120
-3.9186975000 -1.0891093750 -5.6399224960
-3.3727184375 -0.8972756250 -4.8293345280
-3.3740890625 -0.3229434375 -4.0489894800
-2.8026056250 -0.8539531250 -5.6255664992
-6.7085870172 -0.3514309375 -4.8710658720
-6.6782934500 0.2128096875 -4.0573305680
-6.1389487500 -0.2013071875 -5.6281478328
-5.5411963438 -0.2187625000 -4.8659498320
-5.0694178125 0.5699515625 -6.4565935003
-5.6055149375 0.3712646875 -4.0905394960
-5.0268075000 -0.0199546875 -5.7072625344
-4.4608065625 0.0065843750 -4.8765445680
-4.5078512500 0.5361428125 -4.0286807440
-3.9097078125 0.0583053125 -5.7031230752
-3.3683243750 0.2429231250 -4.8685272800
-2.7890203125 0.7810546875 -6.4638370617
-3.3564053125 0.7479581250 -3.9807194880
-2.7774371875 0.2265696875 -5.6313055304
-6.1814220000 0.8892400000 -5.6357299336
-5.5950121875 0.9439709375 -4.8600178160
-5.5540909688 1.5169190625 -4.0686247120
-5.0357165625 1.1206068750 -5.6286089240
-4.4280728125 1.0855215625 -4.8801063680
-4.4612634375 1.6433525000 -4.0808902560
-3.9034996875 1.2726253125 -5.7167576456
-3.3488937500 1.2987343750 -4.8719595600
-2.7885231250 1.9632187500 -6.4209937626
-2.7907403125 1.3560990625 -5.6975873904
-6.1962314688 -1.9004656250 -3.2784750000
-5.0336875000 -1.7550046875 -3.2002578720
-3.9087134375 -1.6523018750 -3.2574539040
-3.9214253125 -2.2120140625 -2.4060671360
-2.7798156250 -1.4217412500 -3.2870492240
-2.8259734375 -1.9639981250 -2.3931928480
-6.1952518750 -0.7751690625 -3.2139869920
-6.1257450625 -1.3601034375 -2.4271918480
-5.0737984375 -0.5873262500 -3.2466001280
-5.0351521875 -1.1554771875 -2.4741687520
-3.9024246875 -0.5019175000 -3.2043766080
-3.9195575000 -1.0951025000 -2.4579528480
-2.7928903125 -0.3734550000 -3.2381165680
-2.8079940625 -0.9093290625 -2.3812381520
-6.1433643125 0.3342846875 -3.2103992880
-6.1447577813 -0.2272281250 -2.3947988960
-5.0753975000 0.5380106250 -3.2211494480
-4.9965731250 -0.0315243750 -2.4259355040
-3.9572093750 0.6840896875 -3.2262136800
-3.8982053125 0.0969112500 -2.4747127360
-6.1244053438 1.4299784375 -3.2817000480
-6.1804880938 0.8963350000 -2.4101988240
-5.0135043750 1.6324412500 -3.2278715360
-5.0461037500 1.0841509375 -2.3847222400
-2.8123343750 1.9734715625 -3.2167198640
-3.8920509375 1.2490156250 -2.4393278720
-2.7749781250 0.7732340625 -3.2117074400
-2.7813878125 1.3821543750 -2.4851520480
-2.2656431250 1.5144196875 -4.8438796240
-6.1506944688 1.9934665625 -5.6797745048
-5.6186971250 2.1077390625 -4.7996096880
-5.0710437500 2.1924087500 -5.6293135128
-3.3640109375 1.8197331250 -4.0109494560
-6.1397778438 1.9534631250 -2.4034637840
-5.0533331250 2.1805971875 -2.4020002080
-3.9390284375 1.8343665625 -3.2131969200
-2.7859296875 0.2069106250 -2.4447936160
-2.2694056250 -1.9236050000 -4.8735267520
-2.2606846875 -0.2166393750 -4.0569161040
-2.2401253125 0.3916090625 -4.8015265840
-6.6916376938 1.9207696875 -4.8265757520
-4.4858943750 2.2291871875 -4.8450453040
-5.0250337500 -0.6172784375 -6.4438879769
-3.9247175000 0.6615281250 -6.4192523662
-3.9515253125 1.8785490625 -6.4498224538
-2.2245646875 2.0530215625 -4.0078280240
1.6886368750 -1.6355721875 -3.1572831360
-1.6293909375 0.9275503125 -3.2633341120
-1.6719071875 -1.2446618750 -6.4269363993
-2.1937256250 -1.3736215625 -4.0681972960
-1.6969546875 -1.8238046875 -5.6307770888
-1.1387206250 -1.3035584375 -4.0186040880
-0.4978190625 -1.8825668750 -5.6477973120
-0.5449578125 -1.2937893750 -3.2546692240
-1.0862203125 -1.8213859375 -4.9080179280
0.0540725000 -1.9299071875 -4.8163825280
0.0086268750 -1.3561259375 -4.0365167040
0.5977134375 -1.9888440625 -5.6955629928
1.1210771875 -2.0953093750 -4.7888854320
1.7240984375 -1.6042896875 -6.4676737161
1.1806456250 -1.4892646875 -4.0665912480
1.6646106250 -2.1584925000 -5.6252750792
-2.2365643750 -0.7769293750 -4.8291532000
-1.6764759375 -0.6609906250 -5.6456498704
-1.1051268750 -0.7397881250 -4.8625434560
-0.5460328125 -0.1765418750 -3.2528948000
-0.5456028125 -0.7325721875 -5.6966496656
-0.0322096875 -0.7839571875 -4.8094143520
0.5144412500 -0.9141262500 -5.6348647400
0.0327068750 -0.1889850000 -4.0512690320
1.0976287500 -0.9286925000 -4.8741614000
1.6279800000 -0.5264678125 -6.4244277264
1.1019153125 -0.3829553125 -4.0376435280
1.7037271875 -1.0720571875 -5.5893915632
-2.2312565625 0.9639390625 -4.0237201280
-1.6847534375 0.4290056250 -5.6538174016
-1.1109184375 -0.1884609375 -4.0382911280
-0.5402815625 0.9276578125 -6.4577656563
-1.1430071875 0.4014721875 -4.7948692560
-0.6109359375 0.3738984375 -5.6320606320
-0.0051062500 0.3430862500 -4.8976174720
0.5112296875 0.7697268750 -6.4232256513
0.0024187500 0.8918603125 -4.0434848800
0.5804865625 0.2144087500 -5.6251883008
1.1710109375 0.1622443750 -4.8782542320
1.7293121875 0.0833796875 -5.7115574176
1.0843390625 0.6919775000 -3.9988652400
2.2306921875 -0.0136659375 -4.8063965360
-1.6777525000 2.0451203125 -6.4495978661
-1.6760190625 1.4897887500 -5.6152191464
-1.0834253125 1.0132950000 -4.0883635600
-1.1130146875 1.5966706250 -4.8435169680
-0.5420150000 1.4881359375 -5.6255652040
0.0407156250 1.4484818750 -4.8671025600
-0.0147812500 1.9898653125 -4.0238237440
0.5889118750 1.3841162500 -5.7101573064
1.1141300000 1.2452531250 -4.8181958080
1.6469940625 1.2121431250 -5.6894470584
-1.6820256250 -1.2722759375 -3.1795864800
-0.5672909375 -0.7418306250 -2.4327741600
0.6074959375 -1.4553081250 -3.2826066880
0.5425525000 -1.9812115625 -2.3885042240
1.6952750000 -1.0243271875 -2.4547796080
-1.6759384375 -0.6768334375 -2.4339009840
-0.5866678125 0.3570612500 -2.4052770640
-0.5531546875 0.9223903125 -3.2101143440
0.5552509375 -0.3698403125 -3.1861531440
1.6642343750 -0.4430478125 -3.1981596480
-1.6787200000 1.4734084375 -2.4166489200
-1.6829796875 -0.1406503125 -3.2728279280
-0.5618353125 2.0352571875 -3.2184683840
-1.6914721875 0.3931543750 -2.3862117200
-0.5528725000 1.4931212500 -2.3958739120
0.5428481250 0.8267556250 -3.1791331600
1.6942268750 0.6707865625 -3.2746412080
1.7253346875 0.1403143750 -2.4187082880
-1.6660618750 2.0458190625 -3.2028094160
0.5591746875 1.9490287500 -3.2415488480
1.1421875000 1.8271371875 -4.0176974480
1.7134425000 1.2101678125 -2.4160660800
2.2068003125 -1.6720550000 -4.0345868560
2.1934434375 -0.6007637500 -4.0113380160
2.1771706250 1.1274196875 -4.8312514240
1.7085781250 1.7720031250 -3.2275865920
1.7492400000 1.7873756250 -6.4680440656
2.2223475000 2.2318612500 -4.8719466080
-1.6730090625 -1.8695190625 -2.4663327920
-0.5298137500 -1.8582853125 -2.4532642240
1.6337446875 -2.2156556250 -2.3999278880
0.5235921875 -0.9320115625 -2.3899159920
0.5898121875 0.2322134375 -2.4601158320
0.6106671875 1.4082096875 -2.4197444480
-1.1309403125 2.1450281250 -4.0353898800
-0.6036125000 -1.3288075000 -6.4540892311
-0.6101834375 2.0215509375 -6.4676485504
0.5787934375 -0.3341234375 -6.4516460954
2.2824668750 -2.2356237500 -4.9020341040
6.7166403125 1.3629253125 -4.0224378800
2.2748478125 0.5507225000 -4.0432258400
2.2723215625 1.6855193750 -4.0364778480
6.6578646875 -2.0422984375 -4.0534967760
6.7139393750 -0.9162359375 -4.0857861120
6.7048690625 0.7955806250 -4.8222886400
2.7513818750 -1.8255784375 -6.4004833640
3.3334943750 -1.9403346875 -4.0788179360
3.3531265625 -1.4665418750 -4.8289071120
3.9268675000 -1.9411006250 -6.4676730556
4.5192059375 -2.0423790625 -4.0232538560
5.5665112500 -2.0976475000 -4.0942308160
2.8110981250 -0.6239434375 -3.2868031360
2.2973287500 -1.1001953125 -4.8783967040
2.8376506250 -1.1811831250 -5.7245521592
3.3704878125 -0.7765531250 -4.0747639600
3.8978693750 -1.3437231250 -5.7128021048
4.4074193750 -1.4769290625 -4.8269643120
4.5125140625 -0.9094903125 -4.0502069680
4.9795881250 -1.4893184375 -5.6334141160
5.5658662500 -1.5284215625 -4.8913487040
5.6296271875 -1.0024106250 -4.0411276160
6.1605562500 -1.4870743750 -5.6338039712
2.7813609375 -0.0588965625 -5.6734150728
3.3263456250 -0.2450731250 -4.8364840320
3.9127984375 0.2655653125 -6.4299354349
3.3939900000 0.3686981250 -4.0671999920
3.9026531250 -0.2975062500 -5.6046788088
4.5007428125 -0.3474131250 -4.8507312320
5.0055628125 0.1619890625 -6.4673270040
4.4629431250 0.2190178125 -4.0366073680
6.1462318750 -0.3639278125 -5.6521543648
5.5986268750 -0.4091853125 -4.8277025760
5.6241984375 0.1575412500 -4.0565534480
2.7550100000 1.0292050000 -5.6090021864
3.3490281250 0.9268515625 -4.8684366160
3.9135643750 1.3939793750 -6.4467203202
3.3567143750 1.4843062500 -4.0668891440
3.9250668750 0.8343746875 -5.6344502760
4.4989825000 0.7650506250 -4.8549017760
5.0676843750 0.7225746875 -5.6659029128
4.4808418750 1.3496759375 -4.0587164320
5.0571493750 -0.3901309375 -5.6748009368
5.6127900000 0.7386996875 -4.8259411040
6.1524803125 1.2524287500 -3.2439579200
6.1565653125 0.7126981250 -5.6725239752
2.7884290625 -1.7264634375 -3.2201262400
3.9096271875 -1.9133790625 -3.2495402320
5.0360928125 -2.0651959375 -3.1870727360
6.1025331250 -2.0591356250 -3.2363162400
2.8062203125 -0.0998540625 -2.4093569440
2.8294000000 -1.1587425000 -2.4272307040
3.9225003125 -0.8605912500 -3.2772834160
3.9227018750 -1.3827859375 -2.3970914000
5.0633440625 -0.9278728125 -3.2372099280
5.0447600000 -1.4801540625 -2.4404417440
6.1836015625 -0.9375343750 -3.2187533280
6.1866921875 -1.5033875000 -2.4088906720
2.8378253125 1.6054856250 -3.2231311040
2.8296015625 0.4574259375 -3.2479341840
3.9287084375 0.2887046875 -3.2070058640
3.9268809375 -0.2864068750 -2.4690138560
5.0633843750 0.1718253125 -3.2704188560
5.0185300000 -0.3665078125 -2.4200164400
6.1840315625 0.1573262500 -3.2533740240
6.1126112500 -0.3821221875 -2.3956666800
3.9319334375 1.4180593750 -3.2466778400
3.9040103125 0.8874796875 -2.4216354400
5.5802040625 1.3241043750 -4.0429020400
5.0737715625 1.8375243750 -2.4755157600
6.1732412500 0.7019078125 -2.4218685760
2.8223587500 2.1343856250 -5.6314389360
3.3736725000 2.0807296875 -4.8126912080
3.9152843750 1.9590800000 -5.6538161064
4.4849671875 1.8988128125 -4.8590464160
5.0504440625 1.8357775000 -5.6509679616
5.6309171875 1.8623703125 -4.8901312160
6.2037040625 1.8209962500 -5.6696071848
3.9392300000 1.9730012500 -2.3691539360
5.0300459375 1.2414637500 -3.2091170400
6.1924568750 1.8174218750 -2.4561266160
2.7968275000 1.0258859375 -2.4496506160
5.0396403125 0.6926628125 -2.3872608320
5.0811890625 -0.9633343750 -6.4740508406
2.8169165625 1.5574600000 -6.4476805815
2.7835781250 2.1509675000 -2.3836472240
6.1202571875 -2.0523496875 -6.4514392519
6.1738325000 -0.9438365625 -6.4646623891
5.0278825000 1.2893415625 -6.4662675564
-4.4380031250 6.6934471875 -4.8639293200
-4.9935496875 6.6719203125 -2.4357790240
-6.6836982813 6.4246971875 -4.8481019760
-5.5355660313 6.5409987500 -4.8470269600
-5.0111662500 6.6685206250 -5.7032370528
-6.1198876563 6.4478634375 -5.6368930232
-3.8791509375 2.9369403125 -3.2394894800
-6.1596478750 2.5127453125 -3.2347749520
-5.6007594063 2.6954415625 -4.0272689760
-4.4244715625 2.7953359375 -4.0605038080
-3.9301596875 2.4149337500 -5.6225111224
-3.3333465625 2.3766906250 -4.8625434560
-2.8010200000 2.5451700000 -5.6796488704
-6.1508422813 3.6809343750 -6.4611858910
-6.6789836000 3.5893712500 -4.0273725920
-6.1331101563 3.1041834375 -5.6716458296
-5.5774722188 3.2345137500 -4.8418202560
-5.6152987813 3.8151346875 -4.0366980320
-5.0272509375 3.2764656250 -5.6714385976
-4.4943331250 3.3894346875 -4.8013841120
-4.4910678125 3.9670590625 -4.0386408320
-3.9340565625 3.4991653125 -5.6258074064
-3.3681900000 3.5393300000 -4.8382325520
-3.3013384375 4.0945137500 -4.0428113760
-2.7919765625 3.6777228125 -5.6093894512
-6.6932274844 4.1276775000 -4.8734619920
-6.1520718125 4.8037315625 -6.4327949774
-6.1239000938 4.2430787500 -5.6578817392
-5.5502451563 4.3522987500 -4.8913228000
-5.5728564375 4.8673850000 -4.0034372960
-4.9646590625 4.3818478125 -5.6543536144
-4.4200775000 4.5335571875 -4.8333366960
-3.8684143750 5.6778006250 -5.6372142328
-4.4701053125 5.0955000000 -4.0342760080
-3.8669631250 4.6053134375 -5.6944439400
-3.3548465625 4.6957746875 -4.7842745200
-3.3631375000 5.2925878125 -4.0416716000
-2.7973515625 4.7506400000 -5.6332327880
-6.6597756344 5.2311246875 -4.8634500960
-6.1094171563 5.4078546875 -5.6814427224
-5.5633077500 5.4183762500 -4.8268347920
-5.5990138750 5.9840950000 -4.0326311040
-5.0328678125 5.5196278125 -5.7070799112
-4.4801700000 5.6323684375 -4.8956617200
-5.0171325000 6.0922400000 -6.4660669687
-4.4333671875 6.1533806250 -4.0011836480
-3.9234140625 6.2433850000 -6.4501895134
-3.3143056250 5.8563312500 -4.8433744960
-2.7996090625 6.4047559375 -6.4307078922
-3.3437740625 6.3930518750 -4.0139672720
-2.7620915625 5.8261371875 -5.6509731424
-6.1276370625 3.0679559375 -2.4293677840
-5.0133162500 2.7092418750 -3.2881630960
-3.9362468750 2.3832750000 -2.3944750960
-3.3223412500 2.9438068750 -4.0773932160
-2.7984668750 3.1177956250 -3.1959837120
-6.1324476875 3.6610603125 -3.1693673520
-5.0245231250 3.7947768750 -3.2250739040
-4.9834850000 3.2390690625 -2.4118048720
-3.8961225000 4.0132571875 -3.2874766400
-3.9118578125 3.4793987500 -2.3973763440
-2.7538409375 4.2273434375 -3.2391397760
-2.8135168750 3.6847909375 -2.3976483360
-6.1575623750 4.8395425000 -3.2471441120
-6.1560009375 4.2737834375 -2.4598956480
-5.0028618750 4.9569190625 -3.1908158640
-5.0094596875 4.3677653125 -2.4411022960
-3.8921315625 5.0878540625 -3.2107360400
-3.8726068750 4.5250378125 -2.3974411040
-2.7874481250 5.2995350000 -3.2511333280
-2.7786331250 4.7728521875 -2.3875975840
-6.1236985313 6.4917368750 -2.4027384720
-6.1815872813 5.9514687500 -3.2536071600
-5.0279900000 6.1238046875 -3.2561068960
-5.0339428125 5.5537725000 -2.4581341760
-3.8712362500 6.2605850000 -3.1796382880
-3.9092643750 5.6556018750 -2.4370224160
-2.7555206250 6.4443025000 -3.1712842480
-2.7567568750 5.8729534375 -2.4262204480
-2.2479459375 4.8405100000 -4.8051013360
-6.7056068753 3.0326825000 -4.8736433200
-2.7884425000 2.5385856250 -2.4185140080
-6.1186446875 5.4021975000 -2.4311551600
-2.2403000000 3.1185750000 -4.0195236800
-2.2609668750 6.5506468750 -3.9901614960
-2.8198056250 3.1403975000 -6.4357661662
-5.0393043750 4.9317103125 -6.4582450098
2.2135056250 6.7121387500 -4.8195039600
-1.6127687500 6.5476637500 -3.2617021600
1.0710896875 2.3630515625 -4.8535418160
-2.2209231250 2.5953725000 -4.8835904560
-1.6933534375 3.2182006250 -6.4100991878
-1.6473971875 2.6341396875 -5.6754226328
-1.1018750000 2.7121981250 -4.8571295200
-0.5231084375 4.3390225000 -6.4033137646
-1.1259818750 3.2374565625 -3.9996164560
-0.5306200000 2.6066196875 -5.6775610080
-0.0159234375 2.5760628125 -4.7944029840
0.6368837500 3.0674587500 -6.4650134919
0.0254909375 3.1425878125 -4.0199640480
0.5127884375 2.5003828125 -5.6755651048
1.6458115625 2.3358675000 -5.6290751960
1.1106362500 3.4741178125 -4.8443977040
-2.1996381250 3.6805312500 -4.8477522720
-1.6526243750 4.4029178125 -6.4537277408
-2.1827606250 4.2429443750 -4.0569031520
-1.6691793750 3.8279137500 -5.6778912840
-1.0947800000 3.7782084375 -4.8534641040
-1.0822696875 4.3351525000 -4.0082424880
-0.5663771875 3.7278446875 -5.6946576480
0.5716446875 4.1788743750 -6.4461203836
0.0349240625 4.2379053125 -4.0162986320
-0.0097556250 3.6984837500 -4.8567280080
0.5601018750 3.6143112500 -5.6406309704
1.1451975000 4.0567409375 -4.0839080720
1.7026790625 3.4610028125 -5.6275662880
-1.6203340625 5.4885200000 -6.4610546872
-2.2171606250 5.4044012500 -4.0215182880
-1.6940790625 4.9565831250 -5.6121417512
-1.1085265625 4.8679493750 -4.8594997360
-0.5349200000 5.4974962500 -6.4205320238
-1.0749596875 5.4368528125 -4.0482641680
-0.5424450000 4.9294528125 -5.6496675808
0.0106156250 4.7768968750 -4.8583211040
0.0430940625 5.3479637500 -4.0626149840
0.6125753125 4.7326606250 -5.6248670912
1.1723009375 4.6497378125 -4.8114219120
1.1115903125 5.2531487500 -4.0832216160
1.7183068750 4.5221353125 -5.6147386272
-2.2083590625 6.0103518750 -4.7896107440
-1.6740840625 6.0472378125 -5.6490575416
-1.1295428125 6.0256303125 -4.7987419040
-1.0715600000 6.6487943750 -4.0939717760
-0.5665115625 6.0650962500 -5.6166386856
0.0046225000 5.9452740625 -4.8277155280
0.5387228125 6.3465312500 -6.4371187436
0.0445318750 6.5090443750 -4.0776004480
0.5879443750 5.8082921875 -5.5948896872
1.2069562500 5.8136537500 -4.8822564000
1.1228240625 6.3199653125 -3.9998884480
1.7618712500 5.6444621875 -5.6714152840
-1.6925337500 3.2252418750 -3.1929399920
-1.6619365625 2.6328631250 -2.4472544960
-0.5542162500 3.1563478125 -3.2340625920
-0.5289000000 2.6125321875 -2.4160660800
1.1676515625 2.9206809375 -4.0329160480
0.5852165625 2.5111059375 -2.4237595680
1.7349290625 2.9280984375 -3.2248537200
-1.6647315625 4.3532931250 -3.2023172400
-1.6454218750 3.7942796875 -2.4077249920
-0.5257287500 4.3192559375 -3.2079384080
-0.5078703125 3.7365253125 -2.4517488400
0.6212559375 4.1998906250 -3.2394376720
0.5695350000 3.6334328125 -2.4419571280
1.6908003125 4.0051140625 -3.2322881680
1.6646643750 3.4536121875 -2.3632996320
-1.6366740625 5.4638487500 -3.2477658080
-1.6748634375 4.9412509375 -2.4198739680
-0.5106653125 5.4741687500 -3.2461338560
-0.5587312500 4.9023628125 -2.4561007120
0.5740768750 5.2712490625 -3.1971493920
0.5606931250 4.7155950000 -2.3507491440
1.6394018750 5.0916300000 -3.2137279520
1.7467943750 4.5335840625 -2.3783110000
-1.6694615625 6.0342034375 -2.4160660800
-0.5333612500 6.5181012500 -3.2138445200
-0.5473496875 5.9879918750 -2.3628074560
0.5320175000 6.3957931250 -3.2088191440
0.6442609375 5.8369678125 -2.4151594400
1.7153640625 6.2485584375 -3.2672456160
1.7623281250 5.6709475000 -2.4606080080
0.5970550000 3.0601084375 -3.2402536480
1.6760190625 2.3511996875 -2.4535880240
2.2087621875 5.0549725000 -3.9932570240
1.7036196875 2.8835531250 -6.4359043641
0.5718596875 5.2846328125 -6.4721550045
1.6559568750 5.0774803125 -6.4523172680
1.6480690625 6.2154081250 -6.4382361126
6.7002600000 2.4970637500 -4.0345480000
6.7150950000 4.6794884375 -4.0410758080
6.7160893750 5.8182359375 -4.1127651280
2.2621493750 2.7852175000 -4.0664099200
2.3032681250 6.1481131250 -4.0074912720
2.7596996875 6.6398853125 -5.6405934096
3.3680556250 6.5703731250 -4.8946255600
3.9398884375 6.4772109375 -5.6365096440
4.5503943750 6.3443812500 -4.9048317360
5.1161131250 6.3546475000 -5.7120677264
5.6057621875 6.3299493750 -4.7975244160