ITEM: TIMESTEP
107000
# source: voids-relax.107000.cfg
ITEM: NUMBER OF ATOMS
2298
ITEM: BOX BOUNDS pp pp pp
-6.7187500000 6.7187500000
-6.7187500000 6.7187500000
-6.4760000000 6.4760000000
ITEM: ATOMS x y z
-6.6989052313 -5.8594205313 -4.0829625760
-6.2442396250 -5.7717610000 -6.4713835186
-6.1059919375 -6.3184764375 -5.6811318744
-5.5848534375 -6.3187922188 -4.8280522800
-5.6351070000 -5.7195213750 -4.0768233280
-5.0232868750 -6.2965880938 -5.6586200032
-4.4672162500 -6.2734688750 -4.8464182160
-3.9096675000 -5.2553659375 -5.7248707784
-4.5162362500 -5.7369296563 -4.0104054720
-3.9051390625 -6.4018305938 -5.6468336832
-3.3192775000 -6.4533755000 -4.8633853360
-3.3508421875 -5.9407214375 -3.9824550560
-2.7841021875 -6.5603998125 -5.7255131976
-6.1843997500 -5.2313800000 -5.5766377288
-5.5525873125 -5.1731956250 -4.8771015040
-5.0642040625 -4.5836253125 -6.4548263294
-5.6076017813 -4.6231450000 -4.0596748800
-5.0168906250 -5.1585756250 -5.6816253456
-4.4468853125 -5.1933384375 -4.8511327440
-4.4783425000 -4.6424546875 -3.9928425600
-3.3043753125 -4.8096843750 -4.0684174800
-2.8405934375 -5.4293251250 -5.6669338920
-6.1827550000 -3.5639340625 -6.4543449036
-6.1778422500 -4.1587584375 -5.7076653416
-5.0578884375 -4.0087153125 -5.6578454736
-5.5717800938 -3.5061259375 -3.9958085680
-4.5045993750 -4.1111090625 -4.8323523440
-3.9430731250 -4.1410075000 -5.6335786064
-4.4384331250 -3.5081012500 -4.0984661200
-3.3537850000 -4.2411034375 -4.8541376080
-3.3999831250 -5.3820425938 -4.8172373600
-3.9185362500 -3.6107503125 -3.1827338160
-2.7990715625 -4.3564375000 -5.6210268232
-6.6941256469 -3.0847393750 -4.9009461360
-6.1662389688 -2.9930284375 -5.7120677264
-5.6493816563 -2.9578759375 -4.7994413120
-5.6177215625 -4.0506940625 -4.8540987520
-5.0150093750 -2.3641668750 -6.4606902179
-5.6418714375 -2.3520328125 -4.0520072960
-5.0959031250 -2.9311353125 -5.6501105392
-4.5228206250 -2.9192431250 -4.8445142720
-3.9294071875 -2.4951825000 -6.4122524578
-4.5057953125 -2.3639787500 -4.0470466800
-3.9544950000 -3.0554321875 -5.6091614960
-3.3214140625 -3.1052718750 -4.9069170080
-2.8292118750 -2.6265878125 -6.4697228909
-3.3836968750 -2.6055043750 -3.9847605120
-2.7489093750 -3.1873078125 -5.6782267408
-6.1602713750 -5.7922155625 -3.1921499200
-6.1529519688 -6.3833768750 -2.4063779840
-5.0886737500 -5.7545811563 -3.2236232800
-5.0557250000 -6.2893022813 -2.3719515680
-3.9388940625 -5.8254411250 -3.2523637680
-3.8781296875 -6.3770088438 -2.4490548240
-2.7365871875 -5.9743192188 -3.2714032080
-2.7992193750 -6.5497411875 -2.4961353440
-6.1592595313 -4.7064171875 -3.2167846240
-6.1844615625 -5.2363115625 -2.3839839760
-5.0603206250 -4.6134834375 -3.2243615440
-4.9899215625 -5.1766490625 -2.4351184720
-3.8610237500 -4.6768546875 -3.2708721760
-3.9321484375 -5.2534309375 -2.4693247040
-2.7302446875 -4.3246443750 -2.3978167120
-6.1707270938 -3.5890353125 -3.2898080000
-6.1626000938 -4.1094831250 -2.4305593680
-4.9757987500 -3.4659478125 -3.2503950640
-5.0749943750 -4.0272053125 -2.4589631040
-3.9526406250 -4.1776112500 -2.3762904880
-3.3735381250 -3.6563975000 -4.0830791440
-6.1748040313 -2.4332625000 -3.2121478080
-6.1607940938 -3.0296725000 -2.4793236480
-5.0672006250 -2.3950731250 -3.2384533200
-5.0717559375 -2.9282865625 -2.3884783200
-3.9509475000 -2.4763834375 -3.2272239360
-3.8796346875 -3.0181565625 -2.4184751520
-2.7553996875 -2.6090921875 -3.2724523200
-2.8468015625 -3.7674987500 -3.2067856800
-2.2825340625 -5.5388676250 -4.8499800160
-2.7749378125 -4.8938837500 -3.1901682640
-2.2865787500 -3.8893768750 -3.9982046880
-6.6896050031 -6.4450321563 -4.9032645440
-5.0957687500 -5.7232059375 -6.4498982230
-2.8473928125 -5.4564285625 -2.3894108640
-2.7635831250 -3.1710887500 -2.4783522480
-3.9598028125 -5.8519882500 -6.4722378973
-6.1468190938 -2.3964571875 -6.4746515155
-2.2815128125 -6.6832586063 -4.8248919920
-6.7053130778 -4.7283471875 -4.0700623840
-6.7003392813 -4.1463018750 -4.8287646400
-3.8833434375 -3.5889412500 -6.4680446226
-2.8192009375 -3.7794715625 -6.4045487378
-2.2221862500 -4.9545540625 -4.0897882800
-1.7159821875 -5.0619600000 -3.1963981760
-1.7115075000 -5.6397402500 -5.6062097352
-2.1760015625 -6.1015535313 -4.0554913840
-1.7118434375 -6.7064714575 -5.6915349208
-0.5432781250 -6.3582702500 -6.4379594579
-1.0995368750 -6.2507017188 -4.1065222640
-0.0566121875 -6.4568920938 -4.0277352480
1.1060675000 -6.6068519063 -3.9881798400
-1.6676071875 -5.0852068750 -6.4097658034
-1.0791521875 -5.6829498750 -4.9033681600
-0.5036912500 -5.7864253438 -5.6569453096
-0.4994450000 -4.6352521875 -5.6786800608
-1.1455200000 -5.1796590625 -4.0000956800
-0.5955634375 -5.2151878125 -6.4369621539
0.0482003125 -5.9234703750 -4.8557307040
0.0803965625 -5.3675690625 -4.0325145360
0.6350965625 -5.9222663750 -5.6720305040
1.1127056250 -6.0473695000 -4.7995967360
1.2925665625 -5.4194203438 -4.0984790720
1.6917140625 -5.4577817188 -6.4629283235
-2.1622550000 -4.4066803125 -4.9025392320
-1.7330075000 -3.9214387500 -6.4483689803
-1.6027040625 -4.4910543750 -5.6680386976
-1.0495628125 -4.6271090625 -4.8178072480
-1.0998190625 -4.0577890625 -4.0233833760
0.0078609375 -4.7766012500 -4.7805961520
1.2173165625 -4.3003090625 -4.0581206400
0.0941834375 -4.1682050000 -4.0721606080
0.5508300000 -4.8643078125 -5.6408498592
1.6964037500 -4.3569212500 -6.4411178031
1.1176237500 -3.7512259375 -4.8942499520
1.1223806250 -4.8647915625 -4.8748608080
-2.2163812500 -3.3491759375 -4.8341915280
-2.2063031250 -2.7771012500 -4.0560094640
-1.6404768750 -3.3427528125 -5.6752283528
-1.1251621875 -3.4805946875 -4.7790419120
-0.4877543750 -3.0311775000 -6.4588564738
-1.0587271875 -2.8586400000 -4.0975465280
-0.5981837500 -3.5868718750 -5.6453726976
0.5910081250 -3.1564687500 -6.3995499134
-0.0027815625 -3.5926903125 -4.8551219600
0.5299884375 -3.7585493750 -5.6846949696
1.1166025000 -3.2260481250 -4.0197827200
1.7221634375 -3.2377656250 -3.2650567280
1.7081615625 -3.7877893750 -5.6292448672
-1.6351153125 -6.1860928750 -3.1959966640
-0.5967593750 -6.3437228125 -3.1818142240
0.5343018750 -6.5052738125 -3.2556665280
1.7121525000 -6.5798102813 -3.2535942080
-1.6221481250 -5.6161856563 -2.3968064560
-0.5289268750 -5.2026506250 -3.2968538880
-0.4719653125 -5.7443471563 -2.4668249680
0.6679243750 -5.4032859375 -3.2901188480
0.5784171875 -5.9548805313 -2.4551940720
1.7393903125 -5.4944015938 -3.2865440960
1.6650809375 -6.0174052188 -2.3910687200
-1.6733987500 -3.9024918750 -3.2771020880
-1.5929753125 -4.4674178125 -2.4774974160
-0.4868540625 -4.1076153125 -3.2948981360
-0.5498625000 -4.6530568750 -2.4564633680
0.6309040625 -4.3375846875 -3.2466648880
0.5318428125 -4.8626281250 -2.4159624640
1.7312875000 -4.3457412500 -3.1872799680
1.6777659375 -4.9379587500 -2.4187082880
-1.7179709375 -3.3638093750 -2.4238113760
0.0253700000 -3.0388368750 -4.0362965200
-0.6014356250 -3.5837140625 -2.3910687200
0.5697634375 -3.1705781250 -3.1958023840
0.5474706250 -3.7550556250 -2.4462053840
1.7025446875 -6.0194840000 -5.6521517744
-0.5692662500 -2.4732390625 -5.6491650432
-1.1235362500 -2.2881912500 -4.8754954560
0.0494768750 -2.5179590625 -4.9305026000
0.6359431250 -2.5629075000 -5.6721898136
1.1950909375 -2.6880240625 -4.8496432640
1.7528143750 -2.6818831250 -5.6817445040
-1.6083881250 -2.8270887500 -3.2712089280
-0.5410206250 -3.0426396875 -3.2076923200
0.6131262500 -2.6143328125 -2.4279171600
1.6494531250 -3.7776037500 -2.4094476080
-1.7150818750 -2.2956356250 -2.3730783920
-0.5614053125 -2.4686031250 -2.4246144000
1.7614143750 -2.7015556250 -2.4087222960
1.7125556250 -4.9074018750 -5.6378942128
2.2191359375 -5.8581533750 -4.7278944640
-1.7334106250 -2.3060496875 -5.6265767552
0.5312918750 -6.5085149375 -6.4163240486
1.7268934375 -3.2488112500 -6.4694875660
6.6612778125 -3.6001346875 -3.9997459760
2.2723350000 -4.4730615625 -4.0788308880
6.6508503125 -5.3034587500 -4.8684625200
6.0806165625 -5.3937480000 -5.6651296784
6.6649865625 -2.5376046875 -4.0183709520
2.2664762500 -6.4632184688 -4.0812658640
3.3220993750 -6.3230357813 -4.1062761760
4.4069625000 -6.1769083438 -4.0114286800
4.9930793750 -6.6459281563 -5.6795115792
5.5370428125 -6.5387815625 -4.8814922320
5.6593912500 -6.0258426250 -4.0095894960
6.1473068750 -6.5176228750 -5.6146557344
2.7947178125 -4.1746281250 -6.4433696378
3.3577221875 -5.7657638438 -4.9162554000
3.3498343750 -5.2548956250 -3.9662002960
3.9409903125 -5.7650960000 -5.6431320016
4.5038065625 -5.6044372500 -4.7919421040
4.4421687500 -4.9440056250 -4.2297605440
5.0059256250 -5.4647705625 -5.6951459384
5.5618753125 -5.4688797500 -4.7973560400
5.5617006250 -4.8740231250 -3.9839833920
2.3594771875 -4.9393562500 -4.8596810640
2.8567184375 -4.7373637500 -5.7273187064
3.4813068750 -4.6977096875 -4.8744333920
3.3309546875 -4.1384275000 -4.0041108000
4.0077075000 -4.5996159375 -5.6057965664
4.8950125000 -4.4097171875 -5.3990994840
4.5242046875 -4.0426584375 -4.1373739280
5.6079928125 -4.3643790625 -4.8576346480
5.5938162500 -3.7332465625 -4.0878843360
6.1208350000 -4.8061771875 -6.4143224465
2.2833537500 -3.8371990625 -4.8392557600
2.7813206250 -2.5628806250 -5.6071319176
2.2852484375 -3.2912334375 -4.0641433200
2.8199131250 -3.6144053125 -5.5905119112
3.4735534375 -3.6685584375 -4.9138333760
3.9056093750 -3.3359937500 -5.9581531360
3.3839925000 -3.0766231250 -4.0899178000
4.4349125000 -3.4965987500 -4.8916595520
4.5418615625 -2.8945853125 -4.0228652960
5.0532256250 -3.3848121875 -5.6477882456
5.5900403125 -3.1331278125 -4.7091140640
6.0866096875 -3.1719353125 -5.6106937176
6.1385187500 -4.2381740625 -5.6365977176
2.7984400000 -6.4807060313 -3.1584229120
3.8363121875 -6.3237667813 -3.2338035520
5.0207875000 -6.0931215000 -3.3392198800
4.9906875000 -6.6177294281 -2.4525648160
6.2053703125 -5.9219156563 -3.1950123120
6.1391368750 -6.5085377813 -2.4378772480
2.6451046875 -5.3797434375 -3.4858235680
2.8051990625 -5.8277322188 -2.4823803200
3.9381684375 -5.1923843750 -3.2202039520
3.9199875000 -5.7568776250 -2.4336289920
4.9528340625 -5.0437925000 -3.2504339200
5.0557518750 -5.5957095938 -2.4095382720
6.1625315625 -4.8148040625 -3.2868678960
6.0754296875 -5.3582165625 -2.4361934880
2.7955509375 -4.2225193750 -3.1825524880
2.8277606250 -4.8512331250 -2.4704515280
3.9593728125 -4.0620218750 -3.2972554000
3.8705509375 -4.6090087500 -2.4481999920
5.0236093750 -3.9042790625 -3.1912821360
5.0697940625 -4.4835831250 -2.4415556160
6.0871740625 -3.7197150000 -3.1853371680
6.2006537500 -4.2886721875 -2.4242387920
2.8235009375 -3.0832343750 -3.2209292640
2.8256375000 -3.6679806250 -2.4345744880
3.9388537500 -2.9685856250 -3.2812726320
3.9517940625 -3.5252071875 -2.4591703360
5.1507012500 -2.7880528125 -3.3977111120
5.0197662500 -3.3197881250 -2.4178146000
6.0772571875 -2.5855093750 -3.3363833920
6.2135806250 -3.1227540625 -2.4389004560
2.2637484375 -2.6535434375 -4.7509101680
3.3940303125 -2.5008934375 -4.8353183520
3.9609181250 -2.4782781250 -5.6714606160
4.5383275000 -2.3618825000 -4.8900276000
2.8311334375 -2.5243821875 -2.4292123600
3.9605015625 -2.4064815625 -2.4930916240
5.0560206250 -2.3204681250 -2.4359862560
2.8329206250 -5.3919258750 -6.3650690990
2.7584096875 -6.0015731563 -5.6434778200
5.0694984375 -6.0604576250 -6.4311976073
3.9389746875 -4.0598718750 -6.4215058847
5.0249665625 -4.8877696875 -6.4726387876
6.2153006250 -5.9660712813 -6.4505859742
3.9010406250 -5.1766625000 -6.4722800302
4.9612862500 -2.8365756250 -6.4344973883
-6.6744030250 -1.4065031250 -4.0540666640
-6.1923225000 -1.8789656250 -5.6061346136
-5.5736734375 -1.8236568750 -4.8952990640
-5.5773351563 -1.2747215625 -4.0696220160
-5.0063825000 -1.8193568750 -5.6439311400
-4.4151190625 -1.8184968750 -4.8599530560
-4.5009578125 -1.2793575000 -3.9859520960
-3.8750390625 -1.8912743750 -5.7036851920
-3.3571981250 -2.0528065625 -4.8169653680
-3.3183234375 -1.4722796875 -4.0476036160
-2.7921646875 -2.0520809375 -5.6750586816
-6.1647191875 -0.7741746875 -5.6855757056
-5.6047140625 -0.6860650000 -4.8603416160
-5.5721388750 -0.1611962500 -4.0048361120
-5.0370065625 -0.6527131250 -5.6649159704
-4.4882190625 -0.7448137500 -4.8493971760
-4.4252778125 -0.1774690625 -4.0651794800
-3.9104468750 -0.7647818750 -5.6550271184
-3.3740890625 -0.8898850000 -4.8003738560
-3.3262381250 -0.2836790625 -4.0907467280
-2.8460759375 -1.0110240625 -5.6290091408
-6.6891673438 0.2776321875 -4.8803265520
-6.1169999375 0.3615896875 -5.6895338368
-5.6116263125 0.4133509375 -4.8043371680
-5.6136661250 1.0086859375 -4.0502328720
-5.0661659375 0.4382237500 -5.6866986440
-4.5335034375 0.4186856250 -4.8170819360
-4.4591134375 0.9963234375 -4.0721088000
-3.9746243750 0.3038890625 -5.6172720384
-3.3603290625 0.2794596875 -4.8943017600
-2.8535068750 0.7119590625 -6.4209341834
-3.3689693750 0.8141243750 -4.0326052000
-2.7843978125 0.1337703125 -5.6484436168
-6.1169287188 2.0250984375 -6.4596289310
-6.7079394372 1.9409931250 -4.0369570720
-6.1973723125 1.4781384375 -5.6175518016
-5.5979066250 1.5518700000 -4.8815699440
-5.6013667813 2.0977012500 -4.0525901360
-5.0295890625 1.5151050000 -5.6375548704
-4.4378687500 1.5434581250 -4.8721926960
-4.5245406250 2.1038825000 -4.0435366880
-3.8847946875 1.4430665625 -5.6864991832
-3.3224218750 1.3504821875 -4.8843287200
-2.7350284375 1.3023759375 -5.6773939272
-6.1620505000 -1.3117687500 -3.2232088160
-6.1548600938 -1.8713331250 -2.4200552960
-5.0730459375 -1.2489081250 -3.1930695120
-4.9827325000 -1.8178250000 -2.4430321440
-3.8780893750 -1.3219543750 -3.2794204960
-3.9023575000 -1.8797181250 -2.4723166160
-2.7342759375 -1.5407303125 -3.2578295120
-2.8490321875 -2.0721700000 -2.4133720640
-6.1584290938 -0.2245137500 -3.2805602720
-6.1485001250 -0.7408765625 -2.3970654960
-4.9848421875 -0.0756128125 -3.2548116960
-5.0362943750 -0.6344112500 -2.4736118160
-3.8739371875 -0.2356668750 -3.2270037520
-3.9481256250 -0.7900040625 -2.4119602960
-2.8077521875 -0.4682565625 -3.2119535280
-2.8232590625 -1.0094115625 -2.3673536080
-6.1500682813 0.9202000000 -3.1962038960
-6.1689452813 0.3263296875 -2.4475264880
-5.0323303125 0.9872800000 -3.2637744800
-5.0832853125 0.4507071875 -2.3877918640
-3.9383565625 0.8571378125 -3.2148677280
-3.9403453125 0.3146256250 -2.3813547200
-6.1781916250 2.0789962500 -3.2212401120
-6.1768075625 1.5074456250 -2.4552588320
-5.0672678125 2.0922859375 -3.2027446560
-5.0400971875 1.5168787500 -2.4014432720
-2.8519212500 1.8426440625 -3.2248666720
-3.9199875000 1.4202093750 -2.4164028320
-2.8334446875 0.6917087500 -3.1801822720
-2.7595921875 1.2768715625 -2.4359344480
-2.2680350000 -2.1772512500 -4.7900511120
-2.2488596875 -0.4690896875 -4.0368016480
-2.2811768750 1.7094381250 -4.0079575440
-3.4115528125 1.9046446875 -4.0333952720
-3.9618184375 1.9984115625 -3.2106324240
-2.7930918750 0.1037240625 -2.4177109840
-2.2929212500 0.5957918750 -4.0366462240
-6.6899977813 -0.8286368750 -4.7949599200
-6.6979424344 0.8379087500 -4.0266861360
-5.0440746875 -1.2407246875 -6.4322768974
-6.1905850313 -0.2058221875 -6.4707860170
-2.7751796875 -0.4432493750 -6.4303237358
-6.1642166250 0.9473303125 -6.4674604744
-3.9174343750 0.8445871875 -6.4341301991
-5.0730593750 2.1007650000 -6.4260449131
-3.9821225000 2.0334028125 -6.4398863270
-2.1913203125 0.0517746875 -4.9072149040
-2.2066525000 1.1544290625 -4.8297878480
1.6472762500 -2.1565575000 -3.2602126800
-1.7367431250 0.5528053125 -3.2161629280
-2.1771706250 -1.5803978125 -4.0829884800
-1.0938393750 -1.7496296875 -4.0348588480
-0.5538131250 -1.8827953125 -3.1788352640
-0.0205728125 -1.9931978125 -4.0375917200
1.0669240625 -2.1184890625 -4.0424487200
-2.2320359375 -1.0181459375 -4.8825931520
-1.7194490625 -0.5839534375 -6.4007834618
-1.6745409375 -1.1813175000 -5.6624149392
-1.0791387500 -1.2171284375 -4.9099348240
-0.5965712500 -0.7395193750 -3.2268353760
-0.4892728125 -1.2772881250 -5.6791346760
0.0406215625 -1.4297634375 -4.8370150640
0.5995543750 -1.4430934375 -5.6640650240
-0.0349240625 -0.8694331250 -4.0310250560
0.5541893750 -2.0045525000 -6.4746784945
1.1505590625 -1.5498140625 -4.8259540560
1.1525746875 -0.9988631250 -4.0142263120
1.6950062500 -1.5994656250 -5.6314492976
-1.6013737500 0.0101990625 -5.6789455768
-1.1720725000 -0.6818859375 -4.0248858080
-1.0685096875 -0.1413356250 -4.8374683840
-0.5215765625 -0.1713684375 -5.6838634512
0.0113815625 -0.2866756250 -4.7898309280
0.0148350000 0.2935690625 -4.0062608320
0.5371237500 -0.3681068750 -5.6860329112
1.0751075000 -0.4224615625 -4.8195169120
1.6279531250 -0.4636340625 -5.6456887264
1.1822312500 0.1419134375 -4.0444433280
-1.6702409375 1.1132028125 -5.6940242952
-1.1777296875 0.4291265625 -4.0280720000
-1.1336546875 1.0038215625 -4.8082227680
-0.6000112500 0.9309903125 -5.6736741128
-0.0546368750 0.8276156250 -4.8418979680
0.5640928125 1.2899731250 -6.4526858819
0.0581171875 1.4133025000 -4.0874828240
0.5315203125 0.7294412500 -5.6200955744
1.1167503125 0.7027006250 -4.8535159120
1.6638178125 0.6733800000 -5.6858360408
1.1716021875 1.8426978125 -4.9087173360
-1.6553925000 -1.7675418750 -3.2113188800
-0.5253525000 -1.2952406250 -2.4196537840
0.5360487500 -2.0113921875 -3.1822804960
1.7448728125 -1.6117878125 -2.4595329920
-1.6785990625 -1.1908043750 -2.4289921760
-0.4994584375 -0.1686271875 -2.4531606080
-0.5902287500 0.3840840625 -3.2801458080
0.5506687500 -0.9101890625 -3.2774258880
1.7148265625 -1.0159959375 -3.2085601040
-1.6298746875 1.1356300000 -2.4499355600
-1.7099084375 -0.5971356250 -3.1805060720
-0.4908181250 1.5059137500 -3.2566120240
-1.6330459375 -0.0191753125 -2.4319452320
-0.5825962500 0.9422240625 -2.4619809200
0.6029406250 0.2046128125 -3.2791873600
1.7238431250 0.1211525000 -3.2267835680
1.6231559375 -0.4428193750 -2.4304428000
-1.6787200000 1.6705768750 -3.2904815040
0.5780678125 1.3162703125 -3.1738487440
1.0998325000 1.2859821875 -4.0743883520
1.6745543750 0.6712568750 -2.3888280240
1.6428956250 1.2132315625 -3.2239082240
2.2102134375 1.2789946875 -4.0038906160
-1.7402368750 2.2359865625 -5.6844592432
-1.2088375000 2.1084243750 -4.8405509600
-0.6171709375 2.0460071875 -5.6258592144
-0.0365500000 1.9804053125 -4.8771533120
0.5531950000 1.8361940625 -5.6073352640
1.7482993750 1.8202706250 -5.6635663720
-0.6523368750 2.0371787500 -2.3800983760
0.5628028125 1.8872028125 -2.3703196160
0.6251931250 -1.4434696875 -2.4207028960
0.5549821875 -0.3483403125 -2.4491972960
0.5110415625 0.7289171875 -2.4134238720
-1.0752956250 1.5673500000 -4.0105997520
1.7322953125 1.7958950000 -2.4477207680
-0.5592553125 -1.8826340625 -6.3931709238
2.2084665625 -0.3787896875 -4.9144550720
2.2303025000 -2.0554806250 -4.0281497120
2.2165425000 0.7474743750 -4.8470917200
-1.6252925000 -1.7601243750 -6.4425976986
1.7135096875 -1.0268803125 -6.4528442849
-0.4993240625 1.4871415625 -6.4612893774
1.7256571875 0.0815790625 -6.4503769289
1.6394959375 1.2524421875 -6.4491729110
5.1468984375 -2.2157900000 -5.6691616360
2.2971943750 0.1628221875 -4.0604260960
2.2955684375 1.8411928125 -4.8161493920
5.6243865625 -2.2310146875 -4.6609196720
6.6849143750 -1.9787793750 -4.8620253760
6.6764218750 -0.2407731250 -4.0242252560
6.6701734375 1.3858362500 -4.8560804080
2.8651840625 -2.0511537500 -6.4672459375
3.4503603125 -1.9355643750 -4.0339522080
4.5178890625 -1.7867843750 -4.0687283280
4.9845600000 -1.6534709375 -6.4408706790
5.5924321875 -1.6059693750 -4.0392754800
6.1279971875 -2.0686225000 -5.6911100952
2.2688546875 -1.4989531250 -4.8224440640
2.7811325000 -0.8832603125 -6.4434153584
2.8121462500 -0.9245134375 -3.2221985600
2.7963975000 -1.4683021875 -5.6856029048
3.3501434375 -1.3963309375 -4.8400976400
3.3411537500 -0.7947609375 -4.0587423360
3.8826043750 -1.3331612500 -5.6946459912
4.4413625000 -1.2508565625 -4.8995343680
4.5192462500 -0.7096612500 -4.0535615360
5.0598503125 -1.1319078125 -5.5780456112
5.6545671875 -1.0649621875 -4.8792515360
6.1212515625 -0.3749600000 -6.4321873991
5.6071462500 -0.5085556250 -4.0551028240
6.2174640625 -0.9515631250 -5.6604410544
2.2459975000 -0.8989015625 -4.0513467440
2.8265109375 0.2057684375 -6.4474754218
2.8324906250 -0.3305893750 -5.6046114584
3.4207709375 -0.2573818750 -4.8712212960
3.3281059375 0.3340965625 -4.0729118240
3.9648150000 -0.1816212500 -5.7041307408
4.4859615625 -0.1024743750 -4.7924731360
4.4288521875 0.4964350000 -4.0465674560
6.1501153125 0.1838250000 -5.5956227704
5.5624665625 0.0742825000 -4.8570129520
5.6195221875 0.6230834375 -4.0323461600
6.1968643750 0.7082503125 -6.4517977633
2.7577109375 0.7988996875 -5.6690191640
3.3368268750 0.8834484375 -4.9015937360
3.9587950000 1.4900037500 -6.4509895585
3.4100343750 1.4132353125 -4.0279424800
3.9384103125 0.9484993750 -5.6025935368
4.5274028125 1.0456659375 -4.8683459520
5.0868059375 1.1318137500 -5.6752918176
4.4736931250 1.6291625000 -4.0733521920
5.0016928125 -0.0030234375 -5.6750496152
5.6161628125 1.2101140625 -4.7935999600
5.5434793750 1.8124365625 -4.0579781680
6.1305234375 1.3188503125 -5.7123746888
2.8305287500 -2.0169418750 -3.3249856320
3.9809131250 -1.7992946875 -3.2091299920
5.0585603125 -1.6981909375 -3.1837958800
6.1848378125 -1.4688665625 -3.2403572640
6.1695996875 -2.0615006250 -2.4152242000
2.8116490625 -0.3591037500 -2.4255469440
2.8374625000 -1.4937528125 -2.4171281440
3.9181196875 -0.6914937500 -3.2893158240
3.8989443750 -1.2323934375 -2.4159754160
5.0407690625 -0.5357531250 -3.2233253840
5.0452168750 -1.1242618750 -2.4642604720
6.1423484375 -0.3827403125 -3.1935875920
6.1787909375 -0.9667609375 -2.3985679280
2.8124418750 1.3733259375 -3.2889272640
2.8044734375 0.2278059375 -3.1641865520
3.8833837500 0.3600981250 -3.2235973760
3.9837753125 -0.1787725000 -2.3814194800
5.0132893750 0.5558556250 -3.3068269280
5.0494900000 0.0395600000 -2.4207676560
6.1525609375 0.7980262500 -3.2292185440
6.1576940625 0.2056340625 -2.4686123440
3.9485018750 1.5237990625 -3.1932508400
3.9199068750 0.9348737500 -2.4403251760
5.0240931250 1.6402618750 -3.2060474160
5.0561012500 1.0768006250 -2.3943714800
6.1234553125 1.8851468750 -3.2886034640
6.1450628125 1.3459000000 -2.4163121680
2.8187306250 1.9215087500 -5.7111442488
3.3345828125 1.9956031250 -4.7866835920
3.8567371875 2.0742662500 -5.6666748520
4.4280593750 2.1864425000 -4.8939909120
3.8664121875 2.1176693750 -2.4411800080
2.7814550000 0.8453531250 -2.4419053200
2.8172121875 1.9168728125 -2.4213764000
5.1021784375 -0.5956843750 -6.4484385326
5.0027275000 2.2278165625 -2.4563727040
3.9546293750 -1.9848800000 -6.4466025866
3.9553550000 -0.7749540625 -6.4666267930
3.8757109375 0.4155815625 -6.4644626174
5.0444912500 0.5621712500 -6.4727271073
4.9751403125 1.7110506250 -6.4656136099
-3.9557581250 3.1350896875 -3.2222633200
-6.7126283453 2.5213184375 -4.8066685280
-6.1907153750 2.6148165625 -5.6884290312
-5.6298838438 2.6595903125 -4.8773087360
-5.0645937500 3.2251612500 -6.4586962575
-5.6148230938 3.1980712500 -4.0290045440
-5.0357971875 2.6851484375 -5.6458687592
-4.4652006250 2.6352953125 -4.8788629760
-4.5152015625 3.1829943750 -4.0418529280
-3.8805618750 2.5974687500 -5.6646154840
-3.3319893750 2.4591700000 -4.8279357120
-2.8076312500 2.3901146875 -5.6986857200
-6.7100041359 3.6560481250 -4.9032515920
-6.1141619375 3.7702400000 -5.6540596040
-5.5706849375 3.7558484375 -4.8352794960
-5.6473015313 4.3449215625 -4.0694665920
-5.0233675000 3.8109018750 -5.6859526088
-4.4786515625 3.7618415625 -4.8277155280
-4.5033093750 4.3130343750 -4.0094988320
-3.9422937500 3.6844146875 -5.6782694824
-3.3910875000 3.5901775000 -4.8288034960
-3.3179875000 4.1458584375 -4.0261421520
-2.8439796875 3.5283650000 -5.6766453016
-6.2112680313 4.8697768750 -5.6415078208
-5.6298919063 4.9104253125 -4.8547074960
-5.5781266250 5.4526015625 -4.0254038880
-5.0815518750 4.8957381250 -5.6521129184
-4.5074481250 4.8679896875 -4.8421181520
-3.9250803125 5.9523690625 -5.5944609760
-4.4552434375 5.4413946875 -4.0496629840
-3.9675025000 4.8256750000 -5.6884795440
-3.4249500000 4.6973737500 -4.8546297840
-3.3487728125 5.2886237500 -4.1039189120
-2.8320203125 4.6342309375 -5.6097896680
-6.1772953438 5.9620171875 -5.6979979688
-5.6475783438 6.0306693750 -4.8279616160
-5.5897084063 6.5769440625 -3.9981658320
-5.0852740625 6.0182128125 -5.6528356400
-4.5285450000 5.9930309375 -4.8661441120
-5.0339696875 6.5730875000 -6.4533237679
-4.4708309375 6.5693787500 -4.0903970240
-3.3270981250 5.8571778125 -4.8696152480
-3.4229478125 6.4275728125 -4.0566182080
-2.7635965625 5.7109643750 -5.6457755048
-6.1940411563 3.1644237500 -3.2696028800
-6.1622977500 2.6311834375 -2.3950449840
-5.0617584375 3.2466612500 -3.2082492560
-5.0489390625 2.6663896875 -2.4352220880
-3.8918896875 2.5647081250 -2.4334088080
-3.3981690625 3.0198093750 -4.0177622080
-2.7904715625 2.9730871875 -3.2903778880
-6.1653843438 4.2669706250 -3.1938725360
-6.1578996563 3.6872365625 -2.4002128320
-5.0823312500 4.3494768750 -3.2535294480
-5.0302206250 3.8084831250 -2.4099138800
-3.9066171875 4.2732996875 -3.2812467280
-3.9111725000 3.7258693750 -2.4689490960
-2.7386834375 4.0845028125 -3.2459525280
-2.8623353125 3.5298296875 -2.4504665920
-6.1544959375 5.4196393750 -3.2328710080
-6.1806050000 4.8605184375 -2.4476042000
-5.0093253125 5.4797184375 -3.2332077600
-5.0308118750 4.9131800000 -2.4407266880
-3.8861921875 5.3783728125 -3.2401888880
-3.9792468750 4.8112565625 -2.4291476000
-2.8372071875 5.1583203125 -3.1897538000
-2.8550387500 4.6173803125 -2.3600357280
-6.1959425625 6.5396684375 -3.2938619760
-6.1762337813 6.0044796875 -2.4429803360
-5.0074843750 6.6043968750 -3.2242061200
-5.1118400000 6.0383959375 -2.4330591040
-3.9676368750 6.4597153125 -3.1798196160
-3.9318125000 5.8972753125 -2.3602818160
-2.8739453125 6.2870971875 -3.2416395120
-2.7371112500 5.7416556250 -2.4198610160
-2.2665300000 2.2856112500 -4.8028994960
-2.3130371875 3.3846912500 -4.8467808720
-2.2893603125 5.1391315625 -4.0701660000
-2.2815934375 6.2282275000 -3.9638300800
-2.7727743750 2.4281025000 -2.4642993280
-2.2401118750 4.5719481250 -4.8685272800
-6.7154214641 4.2073484375 -4.0572140000
-6.7142119950 5.3170306250 -4.0088382800
-6.6985117813 5.8832062500 -4.8012286880
-6.1973682813 3.1953568750 -6.4485607994
-3.8955581250 4.2448525000 -6.4648591041
-2.7804606250 4.0897568750 -6.4596953748
-6.2082311563 6.5213396875 -6.4508727314
-2.8691212500 6.2802575000 -6.4452033820
-5.0175759375 5.4600996875 -6.4617393299
-3.9125968750 5.4123831250 -6.4307163110
-1.7601243750 6.6809906250 -2.4165194000
-1.7365818750 2.2412943750 -2.4643640880
-1.1939353125 6.5910668750 -4.8447733120
-0.6198584375 6.5212053125 -5.6254771304
-0.0139884375 6.4338346875 -4.8920351600
1.0955056250 6.3343031250 -4.8642790240
0.5462209375 6.3344509375 -5.6892786824
1.6979625000 6.3379312500 -5.6251196552
-0.5769793750 6.5250484375 -2.3781685280
0.6000918750 6.3753681250 -2.4297692960
1.6694212500 6.3406590625 -2.4307147920
2.2309743750 6.3565153125 -4.8128077760
-2.1920996875 2.8485081250 -4.0050951520
-0.6169693750 3.6824528125 -6.4479448023
-1.0596812500 2.6971481250 -4.0978055680
-0.0041656250 2.5411118750 -4.0853457440
1.1014584375 2.9252631250 -4.8564301120
-2.2090712500 3.9867450000 -4.1158995120
-1.7195834375 3.3343678125 -5.6113387272
-1.1310746875 3.2752965625 -4.8618699520
-1.1701778125 3.8572746875 -4.0786107040
-0.5638106250 3.1239231250 -5.6272968864
0.5298406250 3.5893309375 -6.4675180979
-0.0761771875 3.6449218750 -3.9958862800
0.0454053125 3.1148125000 -4.8784614640
0.5732975000 3.0018703125 -5.7222376368
1.1280512500 3.4656387500 -4.0172311760
1.6792037500 2.9791475000 -5.6528822672
-1.6710740625 4.4138425000 -5.6229799848
-1.0571146875 4.4156700000 -4.8862456160
-1.1692909375 4.9288481250 -3.9726892480
-0.5260512500 4.2644443750 -5.7129963848
0.0076325000 4.1724109375 -4.8321451120
0.0283262500 4.7501965625 -4.0273596400
0.5661621875 4.1540418750 -5.6768991608
1.1053015625 4.0274740625 -4.8103857520
1.6713696875 4.6672200000 -6.4623116788
1.1266134375 4.6417693750 -4.0988546800
1.6333550000 4.0827828125 -5.6762152952
-2.1791593750 5.7005234375 -4.8613777760
-1.6545996875 5.5724909375 -5.7286268584
-1.1406018750 5.4626528125 -4.8247365680
-1.0739921875 6.0399143750 -4.0331880400
-0.5871246875 5.4483956250 -5.7090667480
-0.0665962500 5.2977478125 -4.8429082240
0.6019328125 5.7447059375 -6.4409871174
0.0244562500 5.8841334375 -4.0843095840
0.5048468750 5.2087378125 -5.6180167784
1.1146406250 5.2187890625 -4.8829817120
1.0876312500 5.7434562500 -4.0382004640
1.6827109375 5.2006215625 -5.6288200416
-1.5985518750 2.7910493750 -3.2576870400
-0.5377015625 2.5893793750 -3.1869561680
1.0874565625 2.3550428125 -4.0229559600
1.6477196875 2.3673515625 -3.1981207920
-1.7009993750 3.8705240625 -3.1757785920
-1.7536340625 3.3170737500 -2.3662656400
-0.6413181250 3.7075540625 -3.2113188800
-0.5249359375 3.1580409375 -2.3822354560
0.5345571875 3.5491393750 -3.2931884720
0.5869231250 3.0163156250 -2.4412836240
1.7000587500 3.5245621875 -3.2479471360
1.6436481250 2.9685184375 -2.4422550240
-1.7582565625 4.9884703125 -3.2309800160
-1.6274693750 4.4564125000 -2.3948118480
-0.5463553125 4.8696962500 -3.2786304240
-0.5293031250 4.3001612500 -2.4769534320
0.6046875000 4.6571956250 -3.2245946800
0.5182440625 4.0865856250 -2.4417758000
1.6536053125 4.6071543750 -3.2376373440
1.6507834375 4.0678671875 -2.3863671440
-1.6461475000 6.1551812500 -3.2947168080
-1.6641268750 5.5927681250 -2.4940630240
-0.5098321875 5.9863256250 -3.2148936320
-0.6296006250 5.4065512500 -2.4321136080
0.5407250000 5.7724678125 -3.1861401920
0.5322056250 5.2155640625 -2.3993709520
1.6469671875 5.7305159375 -3.1964888400
1.7270278125 5.1776300000 -2.4223089440
2.1677778125 5.7960103125 -4.0460752800
0.5190906250 2.4188171875 -3.2093631280
2.1691484375 2.4279681250 -4.0480180800
2.2023525000 4.1170887500 -4.8611057840
-1.6363246875 2.7961153125 -6.4701059722
0.5382793750 2.3830600000 -6.4203475874
1.6435271875 2.3900743750 -6.4403904188
-1.6943478125 3.8789628125 -6.4740682610
-0.5541625000 2.5843537500 -6.4750069028
-1.7466196875 4.9670106250 -6.4466011618
-0.5974850000 4.8569575000 -6.4555326020
1.6792575000 5.7773187500 -6.4422920314
5.0295218750 2.2436056250 -5.6042656400
2.2415496875 2.9718509375 -4.8780210960
2.2412271875 4.6514981250 -4.0086569520