ITEM: TIMESTEP
157000
# source: voids-relax.157000.cfg
ITEM: NUMBER OF ATOMS
2298
ITEM: BOX BOUNDS pp pp pp
-6.7187500000 6.7187500000
-6.7187500000 6.7187500000
-6.4760000000 6.4760000000
ITEM: ATOMS x y z
-6.7124593150 -5.9352846250 -4.8505887600
-5.5974833438 -6.5383018438 -4.0218161840
-4.3959303125 -5.9175578750 -4.8304743040
-4.4156296875 -6.4879018125 -4.0441713360
-2.7874212500 -6.2061134063 -5.8770554832
-3.3394068750 -6.3180773438 -4.0912259520
-6.6400991031 -5.3836940625 -4.0710726400
-6.1176771875 -6.0016833438 -5.5890042984
-5.4935295000 -6.0157349375 -4.8891727680
-6.1087855938 -5.4731999063 -6.4425737374
-5.5821511563 -4.8905109375 -4.8887324000
-5.0667303125 -5.3584450000 -6.4356505049
-4.9361581250 -5.9647127500 -5.7054518448
-4.4701590625 -5.3425215625 -4.0679512080
-3.9026665625 -5.2538071875 -3.2848085280
-3.2662665625 -5.7655273438 -4.9396596640
-2.7379443750 -5.4215730313 -6.3460746024
-6.1126381250 -4.3320484375 -6.4639421284
-6.6935881469 -4.2553068750 -3.9964950240
-4.3809475000 -4.8010575000 -4.8697318160
-5.5199435938 -4.3372084375 -4.0744013040
-3.8527865625 -4.7769775000 -5.7034378088
-3.8679978125 -5.8811530000 -5.6984305656
-3.9343387500 -4.1700459375 -6.4651194134
-4.4572187500 -4.2124950000 -4.1006161520
-3.2780781250 -4.6974543750 -4.8715710000
-3.3118868750 -5.2491846875 -4.0247044800
-3.9342178125 -4.1411553125 -3.2264338640
-2.7735268750 -4.7298521875 -5.7809296248
-6.6565101875 -3.7119750000 -4.8388024400
-6.1035893125 -3.7596915625 -5.7000016432
-5.5821793750 -3.7409865625 -4.8271456400
-6.1670344688 -4.8798550000 -5.6622828288
-5.5704914375 -3.1844321875 -4.0150163840
-5.0257593750 -3.7393068750 -5.6595810416
-4.4538325000 -3.6441425000 -4.8940168160
-4.4001765625 -3.1210609375 -4.0435884960
-3.8452615625 -3.6363218750 -5.6208506760
-3.2501550000 -3.5958481250 -4.8974231920
-2.7948521875 -2.8699678125 -6.4410460490
-3.3240343750 -3.0118678125 -4.1181661120
-2.6984784375 -3.4706240625 -5.6987621368
-6.1521551250 -6.5545477813 -3.2019804880
-4.9964925000 -6.5113435313 -3.2818036640
-3.8613731250 -6.3673634063 -3.2119276240
-2.7269256250 -5.1011975000 -3.2604846720
-2.7620243750 -6.2472442500 -3.2672844720
-6.1112070313 -5.4197791250 -3.1993641840
-6.0751595938 -5.9790398125 -2.4183585840
-5.5779909063 -5.4558615000 -4.0694406880
-4.9876506250 -5.9634590313 -2.4252360960
-5.0114753125 -5.4046928438 -3.2444760000
-2.7759321875 -4.5359625000 -2.4803986640
-6.0783187500 -4.3166759375 -3.2746541600
-6.1285561875 -4.8350543750 -2.4043315680
-4.9949471875 -4.3095540625 -3.1995714160
-4.9842240625 -4.8611634375 -2.3907837760
-3.8262743750 -4.7053421875 -2.4469695520
-3.3646559375 -4.1316146875 -4.0414643680
-6.1358433438 -3.2049243750 -3.2199319600
-6.1542298750 -3.7712209375 -2.4289015120
-4.9807840625 -3.2053812500 -3.2624533760
-5.0197662500 -3.7228728125 -2.4064556960
-3.8510128125 -3.0176056250 -3.2227166400
-3.8442671875 -3.5727759375 -2.4146025040
-2.8141484375 -2.8305690625 -3.1963593200
-2.7929037500 -3.9570346875 -3.2972813040
-2.2694459375 -6.6937749281 -4.9064766400
-2.2608996875 -5.5715382188 -4.9298938560
-2.7958062500 -5.6836432500 -2.4725368000
-2.2747940625 -2.8103725000 -4.0433165040
-6.1069916875 -2.6430890625 -5.6391596232
-5.5263452188 -2.6517562500 -4.8617145280
-5.0081159375 -2.5953053125 -5.7363151656
-4.4716237500 -2.5523859375 -4.8447085520
-3.9218956250 -2.5311009375 -5.6858425168
-3.3615115625 -2.4317037500 -4.8764668560
-2.7802187500 -2.3147706250 -5.6026531160
-6.1116652500 -2.6294903125 -2.4557251040
-5.0025662500 -2.6230537500 -2.4720316720
-3.9294743750 -2.4652706250 -2.3988787760
-4.9786609375 -6.5520631875 -6.4389772261
-3.9130134375 -5.7872866875 -2.4441201120
-2.6848259375 -3.4348534375 -2.4556085360
-4.9884031250 -4.8294643750 -5.6076422264
-2.2566803125 -4.4412684375 -4.8558213680
-6.6998079625 -4.7804981250 -4.8410949440
-6.6903976813 -3.1243665625 -4.0499738320
-6.6935370844 -6.5021818438 -4.0599857280
-6.6817260594 -2.5792878125 -4.8685143280
-2.7340609375 -2.2758556250 -2.3908355840
-2.7895712500 -4.0728793750 -6.4400228410
-4.9672928125 -3.1831421875 -6.4716656650
-1.6313796875 -4.9516918750 -3.1938336800
-1.0968359375 -6.5485828750 -4.8421958640
-2.1699009375 -5.0421396875 -4.0648945360
-1.6565481250 -6.6001710500 -5.6514368240
-1.0947262500 -5.9951540625 -4.0363742320
-0.5074134375 -6.4309442813 -5.5274745272
0.0112471875 -5.3455987500 -4.8329869920
0.5742784375 -5.7831371875 -6.4309333865
0.0328278125 -5.9208970938 -4.1776416960
1.0717615625 -6.2842672500 -4.8953767760
0.4277828125 -6.3216490313 -5.5108674728
1.1142643750 -5.7549372500 -4.0026601760
1.6511059375 -6.3444753125 -5.6405726864
-1.6591415625 -5.4916845313 -5.6203973560
-1.0877790625 -5.4250197500 -4.8484775840
-0.5211600000 -4.2343443750 -5.6254045992
-1.1169384375 -4.8623056250 -4.0834418000
-0.5547000000 -5.3327525000 -5.7019781184
0.0298850000 -4.7187528125 -4.0749064320
0.5574546875 -5.1738943750 -5.6804208096
1.1426040625 -5.1917528125 -4.8737728400
1.1947684375 -4.6723396875 -4.0573435200
-2.1723062500 -3.9273512500 -4.0040978480
-1.6852775000 -4.3909046875 -5.6541619248
-1.1264253125 -4.2959015625 -4.8820491680
-0.4938684375 -3.6882846875 -6.4586112924
-1.0018596875 -3.7422631250 -4.0527973680
0.0466146875 -4.1755284375 -4.8533734400
1.1675709375 -3.4872865625 -4.0943344320
0.0635862500 -3.5559521875 -4.0768362800
0.6141743750 -4.0825543750 -5.6768577144
1.1810218750 -2.8935237500 -4.8746406240
1.1435043750 -4.0622503125 -4.8192449200
-2.1500671875 -3.3560156250 -4.8384009280
-1.6196621875 -3.2637806250 -5.7269184896
-1.1086206250 -3.1654987500 -4.8164472880
-1.0810737500 -2.6020778125 -3.9993703680
-0.5441246875 -3.1228346875 -5.6408187744
0.6184878125 -2.4378446875 -6.4510736170
0.0197396875 -2.9903140625 -4.8569740960
0.6021612500 -2.9835415625 -5.6100409368
1.1890306250 -2.3630381250 -3.9652288960
1.6711278125 -2.4116550000 -6.4112809283
2.0733390625 -2.4545878125 -3.7568700720
1.7672731250 -3.0141387500 -5.6529237136
-1.6471956250 -6.0667141250 -3.2490869120
-0.5131378125 -5.8706583125 -3.2477010480
-0.5710668750 -6.4371564375 -2.4192781760
0.5268171875 -5.7281039063 -3.2075887040
0.6121318750 -6.3199317188 -2.4522280640
1.6919156250 -5.7302243438 -3.2310706800
1.7264634375 -6.2987286875 -2.4614757920
-1.6446021875 -5.5251828750 -2.4247309680
-0.5266156250 -4.8243984375 -3.2910902480
-0.5418403125 -5.3413390625 -2.3798522880
0.6024971875 -4.6309925000 -3.2966855120
0.5980493750 -5.1616259375 -2.4312717280
1.7294600000 -4.5534043750 -3.2350728480
1.6930846875 -5.1532678125 -2.4667213520
-1.5830181250 -3.8321734375 -3.2748225360
-1.6716250000 -4.3663812500 -2.4356883600
-0.4684178125 -3.6843878125 -3.2062676000
-0.5230815625 -4.2790240625 -2.4468788880
0.6329868750 -3.5721040625 -3.2668441040
0.5637568750 -4.1078034375 -2.4124654240
1.7213975000 -3.4493121875 -3.2313685760
1.7063475000 -4.0199490625 -2.4094476080
-1.6312990625 -3.2588221875 -2.4696355520
0.1018831250 -2.4318381250 -4.0436921120
-0.5244521875 -3.0912565625 -2.4480186640
0.6914668750 -2.4392825000 -3.2014365040
0.6418287500 -3.0124993750 -2.4233710080
2.2293753125 -5.8463243438 -4.0408297200
1.7031090625 -5.1654421875 -5.6629084104
-2.1550390625 -2.2667987500 -4.9060880800
-1.6764759375 -2.7155440625 -3.2873730240
-0.4522121875 -2.5566321875 -3.2756903200
1.7542521875 -2.8847759375 -2.5123901040
-2.1864290625 -6.1254158438 -4.0819264160
-1.7043318750 -6.6115918500 -2.4152242000
1.6981640625 -4.0695468750 -5.6399043632
1.6461475000 -5.7660285625 -6.3948540362
2.2235165625 -6.4150463750 -4.8372093440
-1.7064146875 -6.0469421875 -6.4659475254
-0.5823543750 -5.9401113750 -6.4751787111
-1.6905853125 -2.6773009375 -6.4718510211
0.5767643750 -3.5116756250 -6.4619536855
2.2558203125 -5.2882609375 -4.8303965920
6.1716018750 -5.8445613438 -5.6493360096
6.1541868750 -4.7705812500 -5.6431320016
2.7980368750 -6.4422210313 -5.6664948192
3.3222203125 -6.5894739938 -4.7919550560
3.3969059375 -5.9872447500 -4.0958239120
3.8755631250 -6.6461419469 -5.6211226680
4.4738678125 -6.6830235844 -4.8584247200
4.4878696875 -6.1436841250 -4.0243806800
5.0479178125 -6.2981428125 -6.4194724207
5.6122121875 -6.3579007188 -4.0011059360
2.8436303125 -4.2752212500 -5.6294391472
2.8222781250 -5.3900271563 -5.6130069448
3.3648306250 -4.8537996875 -4.0330973760
3.9639550000 -5.5788347813 -5.6501260816
4.5517112500 -5.5867373750 -4.8530237360
5.0632768750 -4.5441325000 -5.6529535032
4.5064806250 -5.0625109375 -3.9698398080
5.0785284375 -5.6872619688 -5.7221094120
5.5941521875 -5.8062443125 -4.8256950160
5.6877981250 -5.2499640625 -4.0207411680
2.2836762500 -4.1359550000 -4.8669212320
2.8366965625 -3.7001500000 -3.2237268960
3.4382665625 -4.3026471875 -4.8621030880
3.4209053125 -5.4040895000 -4.8483869200
3.4086503125 -3.7836506250 -3.9820535440
3.9855356250 -4.3995450000 -5.7021723984
4.5037528125 -4.5314878125 -4.8226512960
4.5430709375 -3.9349703125 -4.0526030880
5.6163240625 -4.6911656250 -4.8244257200
5.0813368750 -2.9194446875 -6.4326288033
5.6062862500 -4.1046321875 -4.0613586400
2.2857725000 -3.5911987500 -4.0681195840
2.2970331250 -2.9779246875 -4.7775394800
2.8188784375 -3.1264628125 -5.7143822488
3.3441503125 -3.2332237500 -4.8370668720
4.4738543750 -3.3811034375 -4.8691230720
4.4964025000 -2.2527565625 -4.8261224320
5.6746428125 -3.5416143750 -4.8495007920
6.2246262500 -3.6501356250 -5.6663225576
5.6089871875 -2.9815931250 -4.0434978320
2.8330818750 -5.9288950938 -3.2853784160
2.7910628125 -6.4458276563 -2.4094346560
3.9118040625 -6.1434879375 -3.2077829840
3.8903712500 -6.6874773094 -2.3801760880
5.0466412500 -6.2644388750 -3.2119017200
6.2054240625 -6.4022605938 -3.2237916560
2.2976915625 -4.7001015625 -4.0643376000
2.8180050000 -5.3932078125 -2.3853827920
3.9240187500 -4.9875565625 -3.2267706160
3.9662931250 -5.5580859375 -2.4420866480
5.1177928125 -5.1138690625 -3.2501230720
5.0511293750 -5.6780519063 -2.4572275360
6.2506546875 -5.3198390625 -3.2064618800
6.1577343750 -5.8678552500 -2.3855382160
2.8596478125 -4.2407943750 -2.4528238560
2.8047825000 -4.8591343750 -3.1962298000
3.9959093750 -3.8545737500 -3.2202298560
3.9483943750 -4.4268768750 -2.4228788320
5.0751421875 -3.9954121875 -3.1878239520
5.0651581250 -4.5821471875 -2.4101988240
6.1719512500 -4.1795731250 -3.2436082160
6.2068887500 -4.7257134375 -2.4340952640
3.3697756250 -2.6631378125 -4.0379414240
6.1840584375 -3.0621509375 -3.2518456880
3.9537962500 -3.2998334375 -2.4137347200
4.4707503125 -2.8336328125 -4.0465545040
5.1141243750 -3.4186209375 -2.4183715360
5.0483478125 -2.8635446875 -3.2466778400
6.2063915625 -3.6183962500 -2.4263370160
2.8051587500 -2.5618459375 -3.2758716480
3.8932200000 -3.2389212500 -5.6520222544
5.5989628125 -2.4056618750 -4.8162400560
6.1720184375 -2.5164675000 -5.6298186408
2.8417087500 -3.1163040625 -2.4144082240
3.9206325000 -2.7276243750 -3.1981078400
5.0575390625 -2.3177403125 -2.4135663440
6.1661059375 -2.5285746875 -2.3943973840
2.8408756250 -4.8086362500 -6.4597694602
2.8220631250 -3.7234371875 -6.4537719071
2.8547968750 -2.5377121875 -6.4742049953
5.0682218750 -3.4610028125 -5.5899148240
6.1871490625 -3.0725784375 -6.4453250013
5.0548381250 -2.3356525000 -5.6580552960
6.1806990625 -4.2122934375 -6.4580486575
6.1882375000 -6.4050435000 -6.4574716459
3.9054750000 -4.9992203125 -6.4227584726
5.0696596875 -5.0916837500 -6.4721048932
3.9763443750 -3.8083218750 -6.4447325768
-6.1584250625 -2.0770478125 -6.4535018579
-6.6840121813 -2.0281756250 -4.0525642320
-5.5825798125 -2.0979968750 -4.0360374800
-4.4356112500 -1.9968528125 -4.0108846960
-3.2807253125 -1.8485834375 -4.0809550160
-6.6907200469 -1.4518278125 -4.8663254400
-6.7069406816 -0.9199850000 -4.0235517520
-6.1384273750 -1.5022856250 -5.6807394288
-5.5818837500 -1.5430818750 -4.8554069040
-5.5728080625 -0.9767450000 -4.0787013680
-5.0210293750 -1.4572565625 -5.6510366072
-4.4391050000 -1.4799525000 -4.8735915120
-4.4862571875 -0.8979340625 -4.0643764560
-3.8890006250 -1.3947587500 -5.6895273608
-3.3600737500 -1.2694271875 -4.8292309120
-3.3683378125 -0.6946650000 -4.0154438000
-2.8171046875 -1.2135137500 -5.6834606440
-6.1350612813 0.2049890625 -6.4550479382
-6.7159151041 0.2114121875 -4.0483936880
-6.1710375000 -0.3675425000 -5.6461187328
-5.5993175625 -0.3929796875 -4.8514824480
-5.0643250000 0.1999903125 -6.4478844460
-5.6363110000 0.1689900000 -4.0565793520
-5.0318062500 -0.3567118750 -5.6429286552
-4.4518034375 -0.3346743750 -4.8564689680
-4.5142878125 0.2461615625 -4.0747121520
-3.9014303125 -0.2634690625 -5.6550620888
-3.3345021875 -0.1547328125 -4.8629579200
-3.3698025000 0.4174225000 -4.0565016400
-2.7902700000 -0.0769028125 -5.6901283336
-6.1703857813 1.2854850000 -6.4606121174
-6.1834698750 0.7542871875 -5.6197808408
-5.5947071563 0.7348162500 -4.8734749440
-5.0587081250 1.3314681250 -6.4556929478
-5.5835688125 1.2656512500 -4.0430963200
-5.0160978125 0.7689878125 -5.6509200392
-4.4519378125 0.8104693750 -4.8476357040
-3.9587009375 1.4587481250 -6.4276277770
-4.5012534375 1.4094056250 -4.0515928320
-3.9072756250 0.8568825000 -5.6982764368
-3.3687275000 0.9887715625 -4.8562746880
-2.8130331250 1.0402640625 -5.6569789848
-6.1385456250 -2.0447171875 -3.2112670720
-5.0095268750 -2.0530887500 -3.2450070320
-3.8317031250 -1.9306193750 -3.2768689520
-2.7362243750 -1.7325237500 -3.2357334000
-6.1277499375 -0.9439440625 -3.2535812560
-6.1401137813 -1.4837687500 -2.3984643120
-5.0438059375 -0.9193937500 -3.2211753520
-5.0080890625 -1.4923150000 -2.4383046640
-3.9406275000 -0.7903265625 -3.2389714000
-3.8954506250 -1.3811465625 -2.4738320000
-2.7599953125 -0.6509931250 -3.2969963600
-2.8320606250 -1.1642787500 -2.4096159840
-6.1634197813 0.1527037500 -3.2021100080
-6.1606597188 -0.4076668750 -2.3947470880
-5.0570821875 0.1560496875 -3.2612229360
-5.0115425000 -0.3609178125 -2.3914054720
-3.9482465625 0.3381278125 -3.2742785520
-3.8974125000 -0.2146103125 -2.4601287840
-6.1465422813 1.3033703125 -3.2432585120
-6.1246163125 0.7303146875 -2.4401308960
-5.0200618750 1.2665381250 -3.2106583280
-5.0107228125 0.7016793750 -2.4136311040
-2.8336596875 1.6444409375 -3.2622331920
-3.8962165625 0.8689493750 -2.3815749040
-2.8194696875 0.5103025000 -3.2301899440
-2.7779209375 1.0979109375 -2.4488087360
-2.2775890625 -1.1046028125 -4.8520134800
-2.2644203125 0.0186378125 -4.8272622080
-2.2421812500 1.1290053125 -4.8667787600
-6.1593119375 1.8766409375 -5.6841898416
-5.6315729375 1.8550871875 -4.8187268400
-5.0791331250 1.8938543750 -5.6370121816
-4.4751309375 1.9140240625 -4.9094815040
-3.8892559375 2.0512478125 -5.6682770144
-3.3281462500 2.1176021875 -4.8774253040
-3.3962475000 1.5665706250 -4.0628740240
-6.1771959063 1.8490537500 -2.4199257760
-5.0693775000 1.8402925000 -2.4323726480
-3.9252281250 1.4031840625 -3.2276254480
-3.8928840625 1.9721950000 -2.4165841600
-2.8119446875 -0.0807996875 -2.4917834720
-2.7602909375 2.1910918750 -2.3786607040
-2.2638962500 0.5904437500 -4.0184745680
-2.2681290625 1.6911093750 -4.0704120880
-6.7041664156 1.8928196875 -4.8187397920
-2.7630187500 2.1605215625 -5.6961989360
-6.1241970625 -0.9189234375 -6.4532130283
-1.5717037500 -2.1595540625 -2.4734822960
-2.1769690625 -0.5511659375 -4.0361929040
1.7046946875 -1.3566768750 -3.1792626800
-1.6602300000 0.6457390625 -3.2745246400
-2.1948140625 -1.7091962500 -4.1067165440
-1.5883125000 -2.1284328125 -5.6575203784
-1.1526821875 -1.5131162500 -4.0471502960
-0.4910331250 -2.0001584375 -5.7226572816
-0.5647378125 -1.4127246875 -3.2663648800
-1.0111450000 -2.0614334375 -4.8503944800
0.0392912500 -1.8519159375 -4.8286610240
-0.0004434375 -1.3132737500 -4.0059499840
0.5769659375 -1.8330900000 -5.6833544376
1.1281050000 -1.8348771875 -4.8712990080
1.1651790625 -1.2497009375 -4.0634309600
1.7216259375 -1.8226759375 -5.6539378552
-1.7056218750 -1.0105134375 -5.6167112168
-1.0967418750 -0.9646512500 -4.9019434400
-0.5438156250 -0.2584568750 -3.1965536000
-0.5302840625 -0.8344821875 -5.6738347176
0.0257328125 -0.7745643750 -4.8612353040
0.5730153125 -0.7063690625 -5.7123656224
-0.0154934375 -0.1884475000 -4.0660990720
1.0961506250 -0.7081696875 -4.8381289360
1.0940678125 -0.1183709375 -4.0517612080
1.6554193750 -0.7266462500 -5.6461239136
-1.7156328125 0.0982415625 -5.6970628344
-1.0680931250 -0.4133375000 -4.0861746720
-0.5276234375 0.8337700000 -6.4743419886
-1.1873375000 0.1707637500 -4.8461850800
-0.6054668750 0.2887181250 -5.6283511792
-0.0106425000 0.3503828125 -4.9023579040
0.5511928125 0.9761000000 -6.4416768114
0.0152784375 0.9066146875 -4.0769528480
0.5730825000 0.4118190625 -5.6440658408
1.1587156250 0.4153262500 -4.8797696160
1.7200000000 0.3885856250 -5.6872283808
1.0673003125 0.9582684375 -4.0141356480
2.2364165625 0.2562800000 -4.8040522240
-1.6886503125 1.2265481250 -5.6605912976
-1.0894050000 0.7321556250 -4.0467358320
-1.1393253125 1.3051843750 -4.8199961360
-0.6046606250 1.3979837500 -5.6785259320
-0.0450156250 1.4911593750 -4.8546038800
0.5567425000 2.1167690625 -6.4338008298
0.0141362500 2.0333087500 -4.0150293360
0.5281878125 1.5573390625 -5.6541839432
1.0891765625 1.4944650000 -4.8604711360
1.6781825000 1.5301953125 -5.6429441976
-1.6881665625 -1.5584678125 -3.1914116560
-0.5280131250 -0.8540203125 -2.4437315520
0.6064478125 -1.2884815625 -3.2879688160
0.5577368750 -1.8380887500 -2.4329166320
1.7014965625 -0.7362137500 -2.4468529840
-1.6843906250 -0.9815690625 -2.4119473440
-0.5951871875 0.2960550000 -2.3878048160
-0.5344228125 0.8385940625 -3.2324694960
0.5425659375 -0.1836771875 -3.2316146640
1.6560375000 -0.1844834375 -3.2354096000
-1.6807221875 1.2154084375 -2.4755157600
-1.6094900000 -0.4376728125 -3.2407846800
-0.5562587500 1.9457500000 -3.2626088000
-1.7493475000 0.1096768750 -2.4128669360
-0.6068509375 1.4088143750 -2.4239020400
0.5259571875 0.9857212500 -3.1747424320
1.6733315625 0.9570993750 -3.2797961040
1.7014562500 0.3991609375 -2.4539765840
-1.7271353125 1.7970506250 -3.2328192000
0.6011265625 2.1203031250 -3.2607825680
1.1580168750 2.0698050000 -4.0654773760
1.6602434375 1.4734621875 -2.4042279520
2.2190687500 -0.3295009375 -4.0080870640
2.2145806250 1.4041515625 -4.8080414400
1.6968337500 2.0523496875 -3.2135207200
-0.5141859375 -1.9728668750 -2.4759820320
1.6948046875 -1.9525359375 -2.5311446000
0.5465300000 -0.7693237500 -2.4328777760
0.6054265625 0.3855487500 -2.4485756000
0.5449175000 1.5797393750 -2.4254433280
-1.1526687500 1.8642784375 -4.0185263760
-1.6912975000 -1.5556190625 -6.4496245472
-0.5605990625 -0.2540762500 -6.4585498999
1.7021684375 -0.1896300000 -6.4721191145
-0.5760656250 1.9703540625 -6.4618378946
1.6341478125 0.9727809375 -6.4427640023
-0.5906856250 -1.3954709375 -6.4624523375
3.9291787500 -2.1562753125 -5.6300569576
3.9738718750 -2.1385512500 -2.4585874960
6.6859625000 0.7761231250 -4.8515472080
6.7092765625 1.3177887500 -4.0257276880
2.2608325000 -2.0051706250 -4.8149448560
2.2490612500 -1.3974193750 -4.0849960400
2.2514262500 0.8447753125 -4.0318410320
2.2465484375 2.0186753125 -4.0863948560
2.8127912500 -1.9862775000 -5.6687769616
3.3589853125 -2.1058040625 -4.8397738400
2.8454846875 -2.0282562500 -2.3960940960
6.6999240625 -0.3591709375 -4.8412762720
2.8386718750 -1.4192821875 -6.4631351799
3.3143056250 -1.5501634375 -4.0349236080
3.4113243750 -0.9920368750 -4.8403696320
3.9236962500 -1.6094631250 -6.4612054485
4.4802506250 -1.7038078125 -4.0147184880
6.1772859375 -1.9753796875 -6.4579310534
5.6646990625 -1.8206737500 -4.0609182720
2.8163925000 -0.3221103125 -3.2601090640
2.2527296875 -0.8330846875 -4.8902866400
2.8388062500 -0.8789871875 -5.6227688672
3.3813990625 -0.4267615625 -4.0487433920
3.9722996875 -1.0464721875 -5.6669261208
4.4964293750 -1.1303087500 -4.7944418400
4.5247690625 -0.5212943750 -4.0706581760
5.0377053125 -1.2367203125 -5.6454037824
5.6114059375 -1.2640118750 -4.8598494400
6.1641575000 -0.8392525000 -6.4449360527
5.6097128125 -0.7115156250 -4.0143428800
6.1681887500 -1.4056296875 -5.6585681952
2.8029146875 0.2623806250 -5.6726340672
3.3184040625 0.1600943750 -4.8005681360
3.3966775000 0.7552950000 -4.0749841440
3.8813950000 0.0289846875 -5.6115032176
4.4809896875 0.0390762500 -4.8774512080
4.4665443750 0.5716984375 -4.0199381440
6.1622225000 -0.2438503125 -5.6983411968
5.6158134375 -0.1687615625 -4.8694727760
5.5951196875 0.3629200000 -4.0013261200
2.7757440625 1.3167943750 -5.6054649952
3.3805793750 1.3244268750 -4.8675299760
3.8657806250 1.7160628125 -6.4167914862
3.3189550000 1.8614565625 -4.0117783840
3.9280096875 1.1377800000 -5.6702237000
4.4978940625 1.1241409375 -4.8692396400
5.0522715625 1.0525325000 -5.7181512808
4.4840131250 1.6558493750 -3.9988911440
5.0436446875 -0.1244312500 -5.6590513048
5.5606793750 0.9153893750 -4.8169394640
6.1634721875 1.4258665625 -6.4758806345
6.1469575000 1.4281106250 -3.2001413040
6.1202437500 0.8786646875 -5.6516686648
2.7906462500 -1.4458750000 -3.1871634000
3.9082028125 -1.5842678125 -3.2616503520
5.0926915625 -1.7856690625 -3.2800940000
6.2011643750 -1.9738612500 -3.2086507680
2.7492856250 0.2330331250 -2.4106780480
2.8677909375 -0.8673637500 -2.4464644240
3.9613750000 -0.5038928125 -3.2644091280
3.9474000000 -1.0411106250 -2.4032306480
5.0469503125 -0.6861187500 -3.1959966640
5.0310806250 -1.2540815625 -2.4118955360
6.1815456250 -0.8208565625 -3.2146475440
6.1690218750 -1.3953768750 -2.4391465440
2.7594846875 1.8713196875 -3.1983150720
2.8261481250 0.7590843750 -3.2630621200
3.9045075000 0.5836309375 -3.1899998880
3.8907340625 0.0351928125 -2.3945139520
5.0362675000 0.4839246875 -3.2154764720
5.0449884375 -0.0891846875 -2.4431616640
6.1789253125 0.3229568750 -3.2160722640
6.1465275000 -0.2558903125 -2.4285000000
3.9123684375 1.7461628125 -3.2417301760
3.9157681250 1.1854696875 -2.4456095920
5.6095515625 1.4981871875 -4.0495593680
5.0480656250 2.1526606250 -2.3945916640
6.1672346875 0.8668396875 -2.3937368320
4.4424778125 2.1968431250 -4.8277284800
5.0042728125 2.1610053125 -5.6299455704
5.5955765625 2.0482243750 -4.8697059120
6.1758884375 1.9739687500 -5.6328947408
5.0643250000 1.6090331250 -3.2177301200
6.2092134375 2.0111100000 -2.4358826400
2.7811056250 1.3109625000 -2.4097584560
5.0085593750 1.0460018750 -2.4111961280
2.7904178125 -0.3283318750 -6.4452672354
3.9007315625 0.5672103125 -6.4679565490
4.9969493750 0.4383715625 -6.4347302653
2.7622931250 1.8662806250 -6.4615928428
-6.6787121625 6.3487484375 -4.8190635920
-5.5823177813 6.3268721875 -4.8148800960
-5.0408093750 6.3021203125 -5.6781723424
-4.4674446875 6.4140815625 -4.8812720480
-3.8801184375 6.4390350000 -5.6005924528
-3.4030871875 6.0366625000 -4.0299759440
-3.2602734375 6.5435250000 -4.9124345600
-5.0608178125 6.3975803125 -2.4283575280
-3.9109978125 6.5038306250 -2.4434077520
-6.1245719688 6.3500250000 -5.6828389480
-3.9107962500 2.5496312500 -3.1711288240
-6.1379180938 2.4022353125 -3.2859353520
-4.9951487500 2.4441200000 -6.4609093658
-5.5624007188 2.4167209375 -4.0323720640
-3.9101243750 2.6389234375 -6.4150559182
-4.4526500000 2.4736018750 -4.0326440560
-2.8170509375 2.7738628125 -6.4388151966
-6.1474264688 2.9650650000 -5.6443611464
-6.6562320313 3.6269693750 -4.0843872960
-5.5693667188 2.9883925000 -4.8165638560
-5.6060631875 3.5679921875 -4.0328253840
-5.0620406250 3.0138968750 -5.6848387368
-4.4978940625 2.9982153125 -4.8537101920
-3.8697715625 3.7564665625 -6.4092961638
-4.4557406250 3.5760950000 -4.0182802880
-3.9382759375 3.2643718750 -5.6419883400
-3.3469990625 3.2051125000 -4.8857016320
-3.3245718750 3.7999234375 -4.0643635040
-2.7623200000 3.3157031250 -5.6553910696
-6.7167959322 4.1717928125 -4.8956487680
-6.1233572188 5.2239221875 -5.7063545992
-6.1773195313 3.5505234375 -6.4578828719
-6.0772141875 4.0796921875 -5.5792397856
-5.5955900000 4.6113737500 -4.0576673200
-5.4713307500 4.0959112500 -4.9330800480
-4.4160462500 4.1545793750 -4.8322746320
-3.8958000000 5.2808568750 -5.6739227912
-4.5122721875 4.7261031250 -4.0049138240
-4.7747603125 4.1557753125 -5.6965279168
-3.4913715625 4.3173612500 -4.9585307280
-2.7543784375 5.0594337500 -6.4536805955
-3.3056384375 4.8685137500 -4.0268156560
-2.9453790625 4.4543565625 -5.6305530192
-5.6007164063 5.2080525000 -4.8204883120
-5.5663580625 5.7616237500 -4.0101723360
-5.0292800000 5.2349006250 -5.5938107856
-4.4311500000 5.2850762500 -4.8298267040
-4.4838518750 5.8532540625 -4.0546754080
-3.9168968750 5.9083881250 -6.4361298584
-3.3579775000 5.4390431250 -4.7918902960
-2.7609628125 6.4190400000 -6.2585838424
-2.7634621875 6.0791518750 -3.3311378320
-2.8173600000 5.6772093750 -5.7701172952
-6.1839119688 2.9095412500 -2.3931928480
-5.0049984375 2.4211418750 -3.2030296000
-3.3949306250 2.7006821875 -4.0574730400
-2.8317650000 2.7196290625 -3.2541252400
-6.1536601250 3.4812531250 -3.1784337520
-5.0360390625 3.5375293750 -3.2551225440
-5.0661256250 3.0036440625 -2.4260132160
-3.8908281250 3.6987256250 -3.2405385920
-3.9455590625 3.1564956250 -2.4290957920
-2.8142962500 3.8382740625 -3.1539285680
-2.7661228125 3.2615500000 -2.4048237440
-6.1415784688 4.6530165625 -3.1985093520
-6.1541438750 4.0766015625 -2.4475135360
-5.0550396875 4.6633903125 -3.2025633280
-5.0119590625 4.0943121875 -2.4087870560
-3.8990518750 4.8132587500 -3.3025268640
-3.9582171875 4.2791046875 -2.4269846160
-2.7450796875 5.0042593750 -3.2225223600
-2.8401903125 4.4559018750 -2.4321913200
-6.1514295000 6.3117818750 -2.4061318960
-6.1369035625 5.7651443750 -3.2625699440
-4.9985350000 5.7992890625 -3.1848968000
-5.0498259375 5.2278325000 -2.4100563520
-3.9092375000 5.9157921875 -3.1936782560
-3.8921181250 5.3264637500 -2.4222053280
-2.7739434375 6.6274153125 -2.4485756000
-2.8291043750 5.5871378125 -2.4181513520
-2.2683037500 2.8620531250 -4.0455442480
-2.3225643750 4.0050065625 -4.0951504080
-2.3369828125 5.6536937500 -4.8856627760
-6.6874211406 3.0086293750 -4.8045314480
-6.1918857813 5.2422778125 -2.4090460960
-3.9322290625 4.7258612500 -6.3580057258
-6.1424760938 4.5969956250 -6.4330366618
-2.2875328125 4.5530550000 -4.9480007520
-6.6775761563 4.7172746875 -4.0616824400
-6.6741646438 5.2928565625 -4.8768295120
-5.0977306250 3.5820478125 -6.4627306760
-2.7941937500 3.9374831250 -6.4483706641
-5.0848171875 4.6978575000 -6.4610299489
-1.6889325000 2.3176328125 -5.6394782424
-2.1742412500 6.2057196875 -4.0469042080
-2.2060746875 5.0880825000 -4.0878713840
-1.6203071875 6.2679353125 -3.2194138800
1.0765184375 2.6507350000 -4.8201904160
-2.2373303125 2.2989143750 -4.8192319680
-1.1218700000 2.4235471875 -4.8435946800
-1.0964059375 2.9763525000 -4.0428761360
-0.5612171875 2.5315846875 -5.6494072456
-0.0040850000 2.5841656250 -4.8349556960
0.0151978125 3.1672590625 -4.0367757440
0.5515287500 2.7084221875 -5.6736378472
1.6564406250 2.5840178125 -5.6016454504
1.6663171875 3.1362184375 -6.4542622698
1.1564446875 3.8048818750 -4.8583211040
-2.2066121875 3.4384009375 -4.8702498960
-1.7191131250 4.0369475000 -6.4059107701
-1.6489693750 3.4255143750 -5.7010326224
-1.1318540625 3.5599296875 -4.8281299920
-1.1913015625 4.1174650000 -4.0275668720
-0.5543775000 3.6019890625 -5.6435827312
-0.0216343750 4.3350046875 -4.0928967600
-0.0090300000 3.7406909375 -4.8033657680
0.5490965625 3.7979346875 -5.6004033536
1.6331534375 4.2845334375 -6.4314728373
1.0858575000 4.3361468750 -4.0039942320
1.7075031250 3.7025284375 -5.6673962784
-1.6787737500 5.1989150000 -6.4396639411
-1.7055681250 4.6213712500 -5.6494758912
-1.0940409375 4.6350237500 -4.8812202400
-0.5866006250 5.2932596875 -6.4338032906
-1.1772325000 5.2121643750 -4.0813565280
-0.5417193750 4.6942159375 -5.6756505880
0.0067725000 4.9640543750 -4.8421052000
0.5491771875 5.4119800000 -6.4714694422
-0.0579156250 5.4698687500 -4.0376435280
0.5686078125 4.8791159375 -5.6285493448
1.1286962500 4.9032631250 -4.8194132960
1.1273256250 5.4677053125 -4.0199510960
1.6801578125 4.8638778125 -5.6849682568
-1.6888921875 5.7671868750 -5.6060996432
-1.1075321875 5.7445984375 -4.8884863120
-0.5713759375 6.4619996875 -6.4291891406
-1.1087818750 6.3018381250 -4.0516446400
-0.5382793750 5.8507278125 -5.6837209792
0.0167296875 6.1067390625 -4.8689417440
0.5824753125 6.6204815625 -6.4387825575
-0.0170656250 6.6062915625 -4.1300949040
0.5747890625 5.9961887500 -5.7214475648
1.0747446875 6.0290568750 -4.7984310560
1.6880187500 6.5179400000 -6.4188714479
1.1194109375 6.6194468750 -4.0234999440
1.6234784375 5.9496681250 -5.6081020224
-1.7034718750 2.9224681250 -3.2796795360
-1.6565481250 2.3864462500 -2.4518524560
-0.5520528125 3.1143421875 -3.2276772560
-0.5530471875 2.5130140625 -2.4789091840
1.1498737500 3.2405875000 -4.0642728400
0.5180425000 2.6605443750 -2.4140455680
1.6735734375 3.1298490625 -3.2119405760
-1.7596943750 4.0020771875 -3.2553945360
-1.6407993750 3.4635693750 -2.4064556960
-0.5842087500 4.2026184375 -3.2776978800
-0.5630581250 3.6759087500 -2.4318416160
0.5139306250 4.3387268750 -3.2284802800
0.5622653125 3.7731962500 -2.4379679120
1.6889728125 4.2821281250 -3.2450717920
1.6657931250 3.7271325000 -2.4373980240
-1.6816090625 5.1320096875 -3.1790295440
-1.6391734375 4.5414450000 -2.4128151280
-0.6044456250 5.2930984375 -3.2443076240
-0.5314934375 4.7566465625 -2.4092921840
0.5350140625 5.4783343750 -3.2876450160
0.5621175000 4.9231640625 -2.4551034080
1.6852237500 5.3947531250 -3.2059697040
1.6490768750 4.8317084375 -2.4112479360
-1.7098681250 5.7151568750 -2.4210914560
-0.5395559375 6.4329612500 -3.2008407120
-0.5342481250 5.8454871875 -2.4232544400
0.5205015625 6.5529850000 -3.2223151280
0.5854987500 5.9825631250 -2.3959257200
1.6395362500 6.5304234375 -3.2033534000
1.7127168750 5.9805340625 -2.4184881040
2.2049728125 4.7818150000 -4.8146081040
2.2034946875 6.4552271875 -4.0134362400
0.5816421875 3.2140350000 -3.2514053200
1.6603375000 2.5985706250 -2.3691021280
2.2387009375 3.1231706250 -4.0158194080
2.2227103125 5.9276978125 -4.8689806000
-0.5608006250 4.1462212500 -6.4734566158
3.9297028125 2.3365125000 -5.7207999648
3.8969153125 2.2910400000 -2.4117012560
6.6842693750 2.4550043750 -4.0116229600
6.6847934375 5.8076203125 -3.9853563040
5.0341578125 6.5850334375 -5.6258216536
5.6508987500 6.5619478125 -4.8935375920
6.2212937500 6.4628596875 -5.6844242728