ITEM: TIMESTEP
27000
# source: voids-relax.27000.cfg
ITEM: NUMBER OF ATOMS
2298
ITEM: BOX BOUNDS pp pp pp
-6.7187500000 6.7187500000
-6.7187500000 6.7187500000
-6.4760000000 6.4760000000
ITEM: ATOMS x y z
-6.6927825688 -5.9475450000 -4.0658918400
-6.1787210625 -6.5960951875 -5.6561474664
-5.6114825313 -6.7019133500 -4.8689287920
-5.6172620000 -6.1230830938 -4.0884412720
-3.9334384375 -6.3946630313 -6.4591305381
-4.5281687500 -6.3061166250 -4.0217125680
-3.3467303125 -6.4592557500 -4.0018701040
-6.1242467813 -5.5045966250 -5.6243904576
-5.5340798438 -5.5507866875 -4.8685143280
-5.6543091875 -5.0206665625 -4.0143428800
-4.9960087500 -5.6707150313 -5.7036372696
-4.4599465625 -5.7371795938 -4.8239724000
-4.4336225000 -5.1809490625 -4.0105220400
-3.9286143750 -5.8120775313 -5.7120586600
-3.3972284375 -5.9403129375 -4.8610410240
-3.3146012500 -5.3638871875 -4.0598562080
-2.8017187500 -5.9679861250 -5.6239539752
-6.6540925125 -4.2876912500 -4.8820621200
-6.1104706563 -4.3767146875 -5.7130261744
-5.5875678125 -4.4518706250 -4.8121990320
-5.5288929688 -3.8855740625 -4.0277870560
-5.0622825000 -4.5268250000 -5.7132308160
-4.5299693750 -4.6350237500 -4.8457965200
-4.4280862500 -4.0549940625 -4.0713834880
-3.9523853125 -4.6913671875 -5.6267529024
-3.3695740625 -4.8052096875 -4.8841992000
-3.3679615625 -4.2618912500 -4.0687930880
-2.7653568750 -4.8810778125 -5.6187848320
-6.6479357188 -2.5921475000 -4.0509970400
-6.1973991875 -3.2501953125 -5.7067742440
-5.6655147188 -3.3328359375 -4.8535677200
-5.0151437500 -2.8620128125 -6.4333800193
-5.5201626250 -2.7675471875 -4.0567088720
-5.0776953125 -3.4120500000 -5.6114993320
-4.4656978125 -3.5123475000 -4.9147788720
-4.4913231250 -2.9705340625 -4.0823797360
-3.8533240625 -3.5802203125 -5.6284172344
-3.2972131250 -3.6646078125 -4.8136108000
-3.3605171875 -3.0841481250 -4.0599727760
-2.7778268750 -3.7693262500 -5.6907681624
-6.1630435313 -6.0839960938 -3.2186238080
-6.1948917500 -6.6431078938 -2.3953299280
-5.0893187500 -6.2215705625 -3.2211624000
-3.9334787500 -6.3762536563 -3.2659245120
-2.7479150000 -6.5523252188 -3.2581662640
-6.1996338438 -4.9262950000 -3.2072130960
-6.1354308125 -5.5107657813 -2.4466716560
-5.0433759375 -5.0939681250 -3.2970611200
-5.0140150000 -5.6360126875 -2.4501298400
-3.8707793750 -5.2500850000 -3.2289076960
-3.9633368750 -5.8192854063 -2.4488994000
-2.7787406250 -5.4342298125 -3.1795994320
-2.8279353125 -6.0212886563 -2.4247050640
-6.1175159375 -3.7986468750 -3.2823606000
-6.1283653750 -4.3440615625 -2.4515804640
-4.9741996875 -3.9990537500 -3.2169659520
-5.0465203125 -4.5664118750 -2.4237077600
-3.8964450000 -4.1118346875 -3.2081067840
-3.9112800000 -4.6866103125 -2.4338362240
-2.7933203125 -4.2993818750 -3.2722580400
-2.7760665625 -4.8382256250 -2.4314271520
-6.1049532188 -2.7245740625 -3.2357204480
-6.1841000938 -3.2686584375 -2.4022981040
-5.0067587500 -2.8344256250 -3.1806355920
-5.0370468750 -3.4265625000 -2.4480963760
-3.9266256250 -3.0148106250 -3.2565731680
-3.8622196875 -3.5456993750 -2.3987492560
-2.8093646875 -3.2143709375 -3.2520399680
-2.7735671875 -3.7631853125 -2.3965862720
-2.2633587500 -5.4556800938 -4.0712798720
-4.9748715625 -2.2858128125 -5.6308276016
-4.4147831250 -2.3747825000 -4.8341656240
-3.8701478125 -2.4883293750 -5.6803897248
-3.3188206250 -2.5185234375 -4.8459260400
-2.7768190625 -2.6375931250 -5.6852920568
-5.0209084375 -2.2412540625 -2.4335771840
-3.8953431250 -2.4768000000 -2.3679105440
-2.7664587500 -2.6673303125 -2.4419700800
-6.7152906366 -5.3964677500 -4.8844193840
-6.2077487500 -4.9649412500 -6.4750651233
-4.9628718750 -3.9375906250 -6.4712118917
-3.9147737500 -4.1494059375 -6.4498102789
-2.8263228125 -4.3463190625 -6.4714538739
-2.2008878125 -6.6289599531 -4.0703991360
-2.2095818750 -3.1878856250 -4.0132549120
-0.5661218750 -6.4773238125 -6.4489628295
-1.0976825000 -6.5373088125 -4.0639360880
-0.0483750000 -6.3471130938 -4.0636900000
1.1145734375 -6.7184679738 -4.8354219680
1.0516859375 -6.1588846250 -4.0197438640
1.6611303125 -6.6959187469 -5.6948402712
-2.2363359375 -6.0451173750 -4.8273140160
-1.6991315625 -6.0099554688 -5.6695294728
-1.1388818750 -5.9526996250 -4.8572590400
-0.5158118750 -5.3409090625 -6.4525961246
-1.0879134375 -5.4174813125 -4.0149257200
-0.5823812500 -5.8926904375 -5.6651076600
-0.0003225000 -5.7907226563 -4.9162294960
0.0551475000 -5.2683465625 -4.0440159120
0.6188775000 -5.7167398125 -5.6306721776
1.1873106250 -5.6195356250 -4.8595256400
1.0986768750 -5.0396403125 -4.0952410720
1.7238565625 -5.5451187500 -5.7204658032
-2.2009953125 -4.8748831250 -4.8404862000
-2.2139087500 -4.3191350000 -4.0283180880
-1.6518853125 -4.8982240625 -5.6831990136
-1.1144390625 -4.8603437500 -4.8223145440
-1.1049790625 -4.2609237500 -4.0523051920
-0.5925668750 -4.7286696875 -5.7188623456
-0.0498128125 -4.7117787500 -4.8615979600
0.6139459375 -4.0260765625 -6.4374012267
0.0280709375 -4.1600215625 -4.0272301200
0.5215765625 -4.5934346875 -5.6521971064
1.1085534375 -4.4785709375 -4.9083158240
1.1869478125 -3.9429521875 -4.0395733760
1.7207793750 -4.4425450000 -5.6214969808
-2.2226431250 -3.7579043750 -4.8455115760
-1.6296596875 -3.2206193750 -6.4537822687
-1.6679431250 -3.7847121875 -5.6559130352
-1.0915281250 -3.7229534375 -4.8762466720
-1.1063631250 -3.1698390625 -4.0426430000
-0.5246806250 -3.6235428125 -5.6488088632
0.0390225000 -3.5959959375 -4.8188952160
-0.0054287500 -3.0010506250 -4.0878325280
0.5376075000 -3.4196825000 -5.7123902312
1.0979781250 -3.3906843750 -4.8640976960
1.7338271875 -2.7243321875 -6.4618548618
1.1397418750 -2.8425687500 -4.0069731920
1.6534575000 -3.2999812500 -5.6774573920
-1.6567228125 -6.5523574688 -3.2398391840
-0.5679359375 -6.4391734063 -3.1722426960
0.5066878125 -6.2714787813 -3.2091299920
1.6480556250 -6.1056197188 -3.2819202320
1.6611034375 -6.6723169875 -2.4815384400
-1.6944821875 -5.4707085938 -3.2815446240
-1.6790693750 -5.9997160938 -2.3879602400
-0.5287253125 -5.2937971875 -3.2543842800
-0.5962487500 -5.8417824688 -2.4251195280
0.5885759375 -5.1261778125 -3.1796641920
0.5621578125 -5.6998985938 -2.4139030960
1.6317156250 -4.9824368750 -3.2060085600
1.7358965625 -5.5665757500 -2.4330072960
-1.6503534375 -4.3705065625 -3.2158261760
-1.6627159375 -4.9410762500 -2.4125560880
-0.5495803125 -4.1829862500 -3.2376114400
-0.5541759375 -4.7609196875 -2.4155998080
0.5963025000 -3.9944043750 -3.2709628400
0.5171690625 -4.5292437500 -2.4197444480
1.7201075000 -3.8506231250 -3.1942222400
1.6825900000 -4.4111146875 -2.4051993520
-1.6578246875 -3.2075581250 -3.2087025760
-1.6809371875 -3.7908396875 -2.4532901280
-0.5376746875 -3.0842690625 -3.2261100640
-0.5289268750 -3.6378537500 -2.4018318320
0.5397440625 -2.8988987500 -3.2528170880
0.5902556250 -3.4595381250 -2.4133850160
1.7104459375 -2.6999431250 -3.2622461440
1.6476121875 -3.2517406250 -2.4509587680
2.1827606250 -6.5325613438 -4.8453820560
2.1814840625 -4.8845446875 -4.0317374160
2.2174965625 -3.2012290625 -4.8854944000
-2.2072975000 -2.6729875000 -4.8901830240
-1.6363515625 -2.6430218750 -5.6879226080
-0.5288865625 -2.5413134375 -5.6508086520
-1.0987978125 -2.5986378125 -4.8414576000
0.0269556250 -2.4184678125 -4.8463405040
1.1522387500 -2.3010509375 -4.8465088800
-1.6412831250 -2.6277703125 -2.4443921040
-0.5632596875 -2.5196521875 -2.4067665440
0.5757700000 -2.3621243750 -2.4065981680
0.5869768750 -2.3126071875 -5.6576887544
0.5483171875 -5.1596371875 -6.4540328899
1.6933400000 -3.8776190625 -6.4507478742
6.7109025000 -3.7600006250 -4.0215571440
6.7103112500 -3.1707259375 -4.7926285600
2.2499346875 -5.9914547188 -3.9880114640
2.2601337500 -5.4484722188 -4.8301375520
2.2467231250 -3.7677675000 -4.0831309520
6.7003540625 -6.5334630000 -4.8319767360
6.6820790625 -4.8356456250 -4.0571621920
3.3440428125 -6.4130334375 -4.8138050800
3.3850540625 -5.8115776563 -4.0733910480
3.8884362500 -6.3074966563 -5.6457159256
4.4775362500 -6.3265496875 -4.8626600240
5.0312553125 -5.7211862813 -6.4562483295
4.4842684375 -5.7443740313 -4.0777170160
5.0121337500 -6.2885255938 -5.6803366216
5.6035853125 -6.3477916875 -4.8897038000
6.1609190625 -5.8755979375 -6.4538234561
5.5972293750 -5.8135328125 -4.0391200560
6.1641306250 -6.4390054375 -5.6826407824
2.8101709375 -4.8361025000 -6.4689899890
2.7995284375 -5.4049723438 -5.6975666672
3.3252034375 -5.2430840625 -4.8536713360
3.9457471875 -4.7045090625 -6.4750942161
3.3649784375 -4.7168043750 -3.9862111360
3.9208609375 -5.2407459375 -5.6228401032
4.4792293750 -5.1650525000 -4.8460167040
4.4987675000 -4.5896453125 -4.0644023600
5.0470309375 -5.1522465625 -5.6625120792
5.5982775000 -5.2470078125 -4.8471046720
6.1602606250 -4.7318543750 -6.4558793270
5.6170765625 -4.6512293750 -4.0954224000
6.1519428125 -5.2978956250 -5.6696188416
2.2983365625 -4.3365768750 -4.8687604160
2.7667543750 -3.6602271875 -6.4759533148
2.8349362500 -4.2372871875 -5.7121817040
3.3758359375 -4.1711075000 -4.8520134800
3.9187646875 -3.5174940625 -6.4530256129
3.3375928125 -3.6174825000 -4.0418011200
3.9214118750 -4.1134875000 -5.7103243872
4.4516421875 -4.0263184375 -4.8482962560
5.0495571875 -3.5171446875 -6.4675829874
4.4875875000 -3.4671303125 -4.0252484640
5.0336471875 -4.0681225000 -5.6288601928
5.6142546875 -4.0776362500 -4.8656778400
5.5896640625 -3.5348284375 -4.0421119680
6.1939753125 -4.1826906250 -5.6306372072
2.8558181250 -2.5748668750 -6.4624171081
2.2971809375 -2.6641456250 -4.0369311680
2.8165000000 -3.1235200000 -5.6172901712
3.4003325000 -3.0614521875 -4.8569740960
3.9182540625 -2.3826300000 -6.4685457613
3.3804450000 -2.4635775000 -4.1130759760
3.9434225000 -2.9555646875 -5.6613826648
4.5364059375 -2.9367656250 -4.8778656720
5.0114350000 -2.3666796875 -6.4616087738
4.4528112500 -2.3790690625 -4.0478626560
5.0784209375 -2.9392650000 -5.6935515472
5.6430243750 -2.9683034375 -4.8732936160
5.5831334375 -2.4531768750 -3.9979197440
6.2060690625 -3.0697296875 -5.6977972128
2.8498115625 -5.9687883438 -3.2497733680
2.7525375000 -6.5109014375 -2.4082042160
3.9556775000 -5.7847120625 -3.2319902720
3.8939053125 -6.3315995000 -2.3845538640
5.0400703125 -5.6751601563 -3.2452919760
5.0420053125 -6.2500647813 -2.4537434480
6.1701506250 -5.8701597813 -3.2694345040
6.1730665625 -6.4118872188 -2.4345226800
2.7635831250 -4.8072118750 -3.2659374640
2.7952015625 -5.3792959688 -2.4863177280
3.9666425000 -4.6556637500 -3.2408623920
3.8924943750 -5.2118418750 -2.4500909840
5.0745643750 -4.6187778125 -3.2568451600
5.0359853125 -5.1568287500 -2.3770158000
6.1415018750 -4.7866121875 -3.1991958080
6.1514053125 -5.3506646875 -2.3859915360
2.7830675000 -3.6681553125 -3.2057106640
2.8538965625 -4.2513428125 -2.4425529200
3.8971034375 -3.5005628125 -3.2525062400
3.9302403125 -4.0740618750 -2.4643381840
5.0370200000 -3.5250190625 -3.2123161840
5.0380546875 -4.0788725000 -2.4022981040
6.1650981250 -3.6500281250 -3.2302547040
6.1791806250 -4.2069050000 -2.4364136720
2.8493009375 -2.5614293750 -3.2282989520
2.7807562500 -3.1062796875 -2.3961847600
3.8949803125 -2.4124612500 -3.2065136880
3.9706334375 -2.9651993750 -2.3868593200
5.0091775000 -2.3343221875 -3.2318607520
5.0801946875 -2.9216484375 -2.4802820960
6.1992025000 -2.5081765625 -3.2944836720
6.1679603125 -3.0576090625 -2.4689620480
2.7830675000 -6.5104929375 -5.6109514624
-6.1504525938 -1.5715021875 -6.4293963726
-6.1895449688 -2.1411043750 -5.6302408760
-5.5819684063 -2.2249140625 -4.9145716400
-5.6202061563 -1.6975190625 -4.0549214960
-4.4736796875 -1.8068062500 -4.0670575200
-3.3211050000 -1.9528315625 -4.0286677920
-6.6879966688 -0.9288403125 -4.9299327120
-6.0781669063 -1.0012146875 -5.6463803632
-5.5349075938 -1.1168443750 -4.8215892320
-5.6266333125 -0.5324743750 -4.0805276000
-4.9910771875 -1.1849456250 -5.6814103424
-4.4495190625 -1.2186737500 -4.8168358480
-3.8727681250 -0.7813637500 -6.4478059569
-4.4747681250 -0.6361715625 -4.0270487920
-3.9273512500 -1.3676687500 -5.6925930992
-3.3515543750 -1.4316178125 -4.9055959040
-3.3552765625 -0.9002721875 -4.0081388720
-2.7636771875 -1.4713659375 -5.6741636984
-6.6849838469 0.1573396875 -4.8455892880
-6.1221276875 0.1122165625 -5.6779702912
-5.5779546250 0.0583590625 -4.8087667520
-5.0138000000 0.4952659375 -6.4294009058
-5.5843280313 0.6331212500 -4.0375399120
-5.0649565625 -0.1009290625 -5.6794468192
-4.4785171875 -0.1135065625 -4.8925402880
-4.4571515625 0.4147753125 -3.9761474320
-3.9122206250 -0.2023821875 -5.6862064680
-3.3655025000 -0.3621675000 -4.8549276800
-3.3524950000 0.2137503125 -4.0894903840
-2.8005496875 -0.3496034375 -5.6722455072
-6.1529949688 1.7675553125 -6.4347710641
-6.2031410313 1.1891918750 -5.6600732176
-5.6076340313 1.1689415625 -4.8879423280
-5.0690146875 1.6550834375 -6.4532627640
-5.5733025625 1.6939178125 -3.9880244160
-5.0473668750 1.0783325000 -5.6913004896
-4.5043037500 0.9336106250 -4.8711047280
-4.4405159375 1.4887271875 -4.0633662000
-3.8967406250 0.9242312500 -5.6474294752
-3.3609068750 0.8064784375 -4.8117975200
-3.3553975000 1.4138131250 -4.0911482400
-2.8171046875 0.7041384375 -5.6551009448
-6.1469091250 -1.5621900000 -3.1939632000
-6.1585365938 -2.1514781250 -2.4591573840
-5.0315240625 -1.6993196875 -3.2661317440
-3.9200950000 -1.9634875000 -3.2578942720
-2.7884425000 -2.0657468750 -3.1700408560
-6.1559283750 -0.3987175000 -3.2347490480
-6.1433387813 -0.9702950000 -2.4483813200
-5.0825059375 -0.6545271875 -3.2599665920
-5.0081428125 -1.1691431250 -2.3653330960
-3.9341775000 -0.8186125000 -3.2261359680
-3.8964853125 -1.3946512500 -2.4603230640
-2.7575765625 -0.8708575000 -3.2632045920
-2.7779612500 -1.4465603125 -2.4757618480
-6.1818291563 0.6462093750 -3.2504339200
-6.1180856875 0.1235443750 -2.3596860240
-5.0463590625 0.4612421875 -3.2124586560
-4.9689859375 -0.0949225000 -2.4316214320
-3.8372796875 0.3765456250 -3.2149583920
-3.8952759375 -0.2284778125 -2.4981429040
-2.7730296875 0.2113987500 -3.2651603440
-2.8055753125 -0.3543468750 -2.4140585200
-6.1709958438 1.7623146875 -3.2504209680
-6.1106681875 1.2074937500 -2.4373850720
-4.9736218750 1.6503400000 -3.2376762000
-5.0468696875 1.0698265625 -2.4870041840
-3.8910162500 1.4605621875 -3.2039880480
-3.9467146875 0.9079853125 -2.3889445920
-2.8361590625 1.2419609375 -3.2250998080
-2.2420200000 1.2738212500 -4.0010023200
-5.6420461250 2.2162065625 -4.8627636400
-4.5172575000 2.0715384375 -4.8229621440
-3.9686312500 1.9838453125 -5.6482778312
-3.3620221875 1.9699106250 -4.8874501520
-2.8173465625 1.8437728125 -5.6937458272
-5.1138959375 2.1824918750 -2.3985161200
-3.8919971875 2.0294118750 -2.3813676720
-2.7776925000 1.8594409375 -2.4935319920
-2.2707896875 1.8067121875 -4.8719077520
-2.2534150000 -2.1240925000 -4.0283180880
-2.2528103125 -0.4406828125 -4.8289200640
-2.2473278125 0.7166756250 -4.8352276880
-6.6792029000 -1.4531850000 -4.0496888880
-5.0476356250 2.2353953125 -5.6620134272
-2.6931706250 0.7195109375 -2.2865978880
-2.7959137500 -2.0392346875 -6.4499378561
-3.9313421875 0.3677440625 -6.4733443737
-2.8061128125 1.2785646875 -6.4658698522
-2.2204259375 -1.0319328125 -4.0718368080
-2.2007668750 0.1308543750 -4.0679123520
-1.1194109375 -2.0367487500 -4.0491708080
-0.5281878125 -1.9882259375 -3.2882278560
0.0432553125 -1.8439609375 -4.0551287280
1.1250681250 -1.7121659375 -4.0789215520
1.6785318750 -2.1409834375 -5.7009769288
-2.2104418750 -1.5797393750 -4.8762725760
-1.6368218750 -1.5309746875 -5.6800853528
-1.0922671875 -1.4657625000 -4.8396831760
-1.1146540625 -0.8863106250 -4.0392495760
-0.5424987500 -1.4483743750 -5.7051941000
-0.0152515625 -1.2779062500 -4.8511327440
-0.0127253125 -0.7169309375 -4.0389775840
0.5631521875 -1.2256075000 -5.6400533112
1.1340175000 -1.1468771875 -4.8654058480
1.1284946875 -0.5824350000 -4.0888686880
1.7026790625 -1.0264637500 -5.6514264624
-1.6528125000 0.1447487500 -6.4613962314
-1.7144503125 -0.4142109375 -5.6591743488
-1.1107303125 -0.3776340625 -4.9390379680
-1.1162665625 0.1483231250 -4.0517741600
-0.5207434375 -0.2892153125 -5.6901749608
0.0187050000 -0.1557540625 -4.8641624560
-0.0655481250 0.3777818750 -4.0192775920
0.5849478125 -0.1512928125 -5.6880598992
1.1013643750 0.0280037500 -4.8078342080
1.6510656250 0.0572168750 -5.6509796184
1.0797031250 0.5887640625 -4.0308566800
2.2228850000 0.1330043750 -4.8620901360
-1.7080809375 0.7209756250 -5.6701382168
-1.1236706250 0.7098896875 -4.8769072240
-1.1112275000 1.2699915625 -4.0833252320
-0.5757834375 0.8713278125 -5.6835513080
0.0182346875 0.9183321875 -4.9160611200
-0.0129403125 1.4283659375 -4.0334729840
0.5849612500 0.9830606250 -5.7099474840
1.1218968750 1.1482881250 -4.8639034160
1.6897656250 1.1330231250 -5.6833155816
1.0977093750 2.2120543750 -4.9244281120
-1.6655646875 -2.0637178125 -3.2445925680
-0.5492846875 -1.4592184375 -2.4371907920
0.5977940625 -1.7950215625 -3.2101013920
1.6729956250 -1.5928409375 -3.2247889600
1.7210750000 -2.1603468750 -2.4182161120
-1.6516031250 -1.5354628125 -2.3856806880
-0.5449443750 -0.8808146875 -3.2137409040
-0.5389646875 -0.2962162500 -2.4610224720
0.5789546875 -0.6884300000 -3.2695510720
1.6715309375 -0.4981146875 -3.2487890160
-1.6681043750 0.1695678125 -3.2087932400
-1.6604181250 -0.9744740625 -3.2346324800
-0.5988825000 0.3159290625 -3.1577235040
-1.6896715625 -0.4307793750 -2.4408691600
0.5565812500 0.9714909375 -2.4729642160
0.5219796875 0.3956537500 -3.2371063120
1.6739765625 0.6174128125 -3.2844847280
1.6750381250 0.0603746875 -2.4374239280
-1.6483915625 1.2343553125 -3.2500453600
-1.7739784375 0.7077128125 -2.3118283840
-0.5884281250 1.4321821875 -3.2102438640
-0.6111643750 0.8696884375 -2.3632219200
0.5127212500 1.5764740625 -3.1615443440
1.0544943750 1.6846996875 -4.0069731920
1.6641537500 1.1327812500 -2.4005495840
2.2336215625 -2.0996093750 -4.8472600960
2.2033737500 1.2751381250 -4.7980424960
1.6506625000 1.6985537500 -3.2151267680
2.1764853125 1.8662537500 -4.0684692880
-1.6828453125 1.8195718750 -5.6443352424
-1.1426981250 1.8603815625 -4.7990916080
-0.6069046875 1.9788196875 -5.6540919840
-0.0103737500 1.9905237500 -4.8687474640
0.5180156250 2.1763912500 -5.7067444544
-1.7380062500 1.8046025000 -2.4655168160
0.5327565625 2.1898825000 -2.4541449600
0.5440709375 -1.2311034375 -2.4205345200
0.6007503125 -0.1385540625 -2.4086963920
1.6962156250 -1.0413525000 -2.3959775280
-0.6039753125 1.9708646875 -2.3406206800
2.2325734375 -1.5426384375 -4.0389387280
2.2318746875 -0.4231468750 -4.0538982880
-0.5621578125 -0.8643000000 -6.4680505675
-0.5815346875 0.2804675000 -6.4572952397
0.5303243750 1.5803440625 -6.4257284958
6.6873734375 -2.0248968750 -4.8462886960
6.6903296875 -0.4079356250 -4.0338744960
6.7109562500 0.7289709375 -4.0854234560
6.7095990625 1.3355262500 -4.8022778000
6.7143290625 1.9132312500 -4.0475259040
2.8498384375 -1.4431203125 -6.4619178085
2.7790228125 -2.0155846875 -5.6715007672
3.3482218750 -1.8817606250 -4.8756379280
3.3917056250 -1.3423928125 -4.0178140160
3.9357496875 -1.8412062500 -5.6155986400
4.5308293750 -1.8317865625 -4.8777879600
4.5058759375 -1.2716578125 -4.0701530480
5.0911193750 -1.7818528125 -5.6970719008
5.6182053125 -1.8954803125 -4.8184159920
6.2297593750 -1.3861453125 -6.4748991992
5.6395978125 -1.3041900000 -4.0705804640
6.1440146875 -1.9714828125 -5.7089488848
2.2776293750 -0.9871321875 -4.8631133440
2.7889262500 -0.3233331250 -3.2191807440
2.8130734375 -0.8579843750 -5.7190462640
3.3472140625 -0.7850993750 -4.8483739680
3.3437337500 -0.2289884375 -4.0153142800
3.9117503125 -0.7212578125 -5.6974915456
4.4311500000 -0.6852856250 -4.8207084960
4.5146371875 -0.1004990625 -4.0641562720
4.9920581250 -0.7137193750 -5.6391699848
5.5743184375 -0.7398284375 -4.8556788960
6.1582584375 -0.2810587500 -6.4225603070
5.6351500000 -0.1695946875 -4.0653090000
6.1338290625 -0.8551356250 -5.6330695928
2.2597171875 0.6926762500 -4.0513856000
2.7848412500 0.2687365625 -5.6610342560
3.3570368750 0.3053134375 -4.8617274800
3.3701518750 0.8782884375 -4.0623170880
3.8933409375 0.3883706250 -5.6910194312
4.4580518750 0.4559343750 -4.8563135440
5.0112871875 0.9775646875 -6.4269525893
4.4686137500 1.0191268750 -4.0404929680
5.0134640625 0.3879406250 -5.6556112536
5.6043243750 0.3752153125 -4.8988479120
5.5772612500 0.9080659375 -4.0191610240
6.1983156250 0.3013225000 -5.6541606296
2.7608150000 1.3583028125 -5.6309830256
3.3403743750 1.4370734375 -4.8508089440
3.3349187500 1.9964631250 -4.0428372800
3.8973856250 1.5206143750 -5.6502853912
4.4910409375 1.5469115625 -4.9041970880
4.4641525000 2.0728418750 -4.0349236080
5.0714871875 1.5663421875 -5.6872102480
5.6030478125 1.4519353125 -4.8332071760
5.5717250000 2.0490843750 -4.0677957840
6.1716959375 1.4085187500 -5.6729954280
2.8049034375 -1.4515053125 -3.2685019600
2.7947312500 -1.9902818750 -2.4213116400
3.9772312500 -1.2983312500 -3.2448386560
3.9094793750 -1.8328481250 -2.4207288000
5.0844946875 -1.2178406250 -3.2586972960
5.0553487500 -1.7800790625 -2.4344708720
6.1815456250 -1.4354206250 -3.2300604240
6.1499943750 -1.9899056250 -2.4031529360
2.7627231250 0.2345112500 -2.4501816480
2.8337940625 -0.9070984375 -2.4432005200
3.9414471875 -0.1680359375 -3.2731387760
3.9186437500 -0.7197662500 -2.4584968320
5.0608715625 -0.1629565625 -3.2475715280
5.0074575000 -0.6985215625 -2.3760573520
6.1643725000 -0.2694353125 -3.1840808240
6.1596828125 -0.8645150000 -2.4486921680
2.7465040625 1.9081250000 -3.2734625760
2.8061934375 0.8266078125 -3.2236362320
3.9076384375 0.9407728125 -3.2098682560
3.9074637500 0.3721650000 -2.4202625280
5.0262162500 0.9673521875 -3.2130414960
5.0256921875 0.3927781250 -2.4282927680
6.1762646875 0.8788662500 -3.2462115680
6.1465006250 0.3182537500 -2.4450138000
3.8988100000 2.0867228125 -3.2394894800
3.9050046875 1.5310418750 -2.4423845440
5.0282721875 2.1239850000 -3.2216157200
5.0461440625 1.5371156250 -2.4546889440
6.1260353125 1.9456290625 -3.2515866480
6.1864368750 1.4031571875 -2.3876623440
2.7867896875 1.3827993750 -2.4236041440
3.9616303125 -1.3136903125 -6.4747750154
5.0979993750 -0.1564393750 -6.4726406527
3.9064828125 0.9695290625 -6.4637477836
3.9070471875 2.0830409375 -6.4458825849
-5.0247112500 6.6571928125 -5.6168251944
-4.4230740625 6.6015212500 -4.8735267520
-3.8962165625 6.4559125000 -5.6998229056
-3.3338168750 6.4172125000 -4.8402530640
-2.8108696875 6.3627637500 -5.7230600888
-5.0427040625 6.6493453125 -2.4267644320
-3.8955984375 6.5010221875 -2.4673041920
-2.8330550000 6.3259853125 -2.4321265600
-2.2833671875 6.2409662500 -4.8532439200
-6.1727373438 2.3567628125 -5.6949659056
-5.5924899688 2.8036940625 -4.0752561360
-3.9247578125 2.5375509375 -6.4659884278
-4.5095846875 2.6747478125 -4.1008492880
-2.8228156250 2.4206312500 -6.4537940550
-3.4094834375 2.5028956250 -4.0050951520
-6.1637409375 3.5047687500 -5.6725343368
-5.6341448750 3.3713881250 -4.8394759440
-5.0417365625 3.8273762500 -6.4754651562
-5.6442189688 3.9628934375 -4.0880786160
-5.0721053125 3.2813703125 -5.6418899048
-4.4712878125 3.2475615625 -4.8835775040
-3.9459487500 3.7030525000 -6.4454536146
-4.5324150000 3.7730215625 -4.0100298640
-3.9250668750 3.1171506250 -5.7017644104
-3.3845031250 3.0273075000 -4.8678796800
-3.3652875000 3.5980653125 -4.0504919120
-2.7905790625 3.0058343750 -5.6887165656
-6.1691858125 5.1229259375 -6.4714416084
-6.1878128750 4.5754150000 -5.6432446840
-5.5895673125 4.5289884375 -4.8778009120
-5.0588693750 4.9916953125 -6.4481430974
-5.6406042813 5.0499871875 -4.0095765440
-5.0525268750 4.4080778125 -5.7036528120
-4.5088187500 4.3139481250 -4.8604063760
-4.4652946875 4.8786993750 -4.0540407600
-3.9260746875 4.2861728125 -5.6726379528
-3.3983975000 4.1574818750 -4.8416389280
-3.3574265625 4.7442706250 -4.1014968880
-2.8082896875 4.0631909375 -5.6136765632
-6.1626014375 6.2797334375 -6.4564802998
-6.1689224375 5.7030631250 -5.6945164712
-5.6217716250 5.6044856250 -4.8538267600
-5.5786412813 6.1742087500 -4.0617860560
-5.0545156250 5.5721281250 -5.6756933296
-4.5130381250 5.4412334375 -4.8489179520
-4.4925056250 6.0283850000 -4.0959016240
-3.9385178125 5.3533521875 -5.6279406008
-3.3444459375 5.3350368750 -4.8643696880
-3.3947021875 5.8613300000 -4.0208836400
-2.8162043750 5.1717175000 -5.6811033800
-6.1218710313 2.9171200000 -3.2437765920
-6.2053662813 2.3335025000 -2.4682885440
-5.0483746875 2.7481434375 -3.2118110560
-3.9986237500 2.5583656250 -3.2243874480
-2.8321815625 2.4288818750 -3.2741749360
-6.1723100313 4.0257809375 -3.1866064640
-6.2520642813 3.4411153125 -2.4029975120
-5.1095018750 3.8488628125 -3.2334149920
-5.0351656250 3.3079093750 -2.3957443920
-3.9254028125 3.7095428125 -3.2751981440
-3.9013362500 3.1536871875 -2.4725238480
-2.7940728125 3.5318453125 -3.2114484000
-2.8189993750 2.9546240625 -2.4223866560
-6.2098476875 5.1582665625 -3.2238175600
-6.1355530938 4.5991590625 -2.4207806080
-5.0419515625 4.9936034375 -3.2816093840
-4.9985215625 4.4306796875 -2.4695448880
-3.9067515625 4.8083809375 -3.2370156480
-3.9527481250 4.2381471875 -2.4200812000
-2.8559928125 4.6255100000 -3.1938725360
-2.7694015625 4.0720059375 -2.3877530080
-6.1448007813 6.2727325000 -3.2874766400
-6.1347831250 5.7363478125 -2.4362452960
-5.0310671875 6.0901571875 -3.2219265680
-5.0722665625 5.5137287500 -2.4205345200
-3.9676368750 5.9129837500 -3.2240766000
-3.9123818750 5.3568056250 -2.4110148000
-2.8106143750 5.7728171875 -3.2718306240
-2.7863865625 5.2340809375 -2.4463090000
-2.2842271875 2.9167571875 -4.8115125760
-2.2696206250 3.5164459375 -4.0764606720
-2.2400581250 2.3500709375 -4.0210002080
-2.2962134375 4.6249456250 -4.0270746960
-6.7115341969 4.0892059375 -4.0505825760
-6.7090975213 5.7910921875 -4.8621030880
-6.1898137188 2.9362146875 -6.4611428903
-2.8077925000 5.7509812500 -6.4294186501
-2.2283809375 5.1597850000 -4.8985888720
-2.2154675000 5.6817915625 -4.0224896880
-1.7072881250 6.3234456250 -5.6317666216
-1.1126921875 6.3544862500 -4.9005187200
-0.5224500000 6.4060325000 -5.6328934456
0.0568809375 6.5384993750 -4.8682941440
0.5832950000 6.6017228125 -5.7338465144
-1.7186965625 6.3361306250 -2.4100693040
-0.5371909375 6.4209750000 -2.4100045440
0.6019462500 6.5877612500 -2.4481222800
-1.1107706250 2.4637925000 -4.0797634320
0.5245193750 2.7640131250 -6.4562766944
0.0042731250 2.5576937500 -4.0705804640
1.6872393750 2.2563443750 -5.6889807864
1.1225284375 3.2724343750 -4.8554328080
-1.7257915625 2.8837143750 -5.6614396536
-1.1821103125 3.0448165625 -4.8570647600
-1.1087012500 3.5726012500 -4.0042403200
-0.5946900000 3.0488478125 -5.6155079760
0.0078340625 3.7270518750 -4.0772896000
-0.0158293750 3.1396987500 -4.8339065840
0.5340465625 3.3233893750 -5.6434415544
1.1021706250 3.8537137500 -4.0774968320
1.6435137500 3.4591484375 -5.7089190952
-2.2097431250 4.0767359375 -4.8677242560
-1.7197715625 4.6264775000 -6.4314864369
-1.6868228125 4.0153265625 -5.7263019744
-1.1440284375 4.1395965625 -4.8481667360
-1.1814921875 4.6754706250 -3.9996294080
-0.5965981250 4.1600350000 -5.6883008064
-0.0660453125 4.3068396875 -4.8405121040
0.0180600000 4.8581668750 -4.0211685840
0.5298137500 4.3700631250 -5.5920285904
1.1152990625 4.4326684375 -4.8236615520
1.1342728125 5.0331500000 -4.0859933440
1.6507968750 4.6040503125 -5.6469606128
-1.6533500000 5.2066146875 -5.6750535008
-1.0946053125 5.2122450000 -4.8523372800
-1.1528837500 5.7999743750 -4.0782998560
-0.5524156250 5.3031631250 -5.7113152152
-0.0251953125 5.4250815625 -4.8180015280
-0.0521509375 5.9997765625 -4.0156380800
0.5138768750 5.4472937500 -5.6889030744
1.0422259375 5.6188906250 -4.8450323520
1.1404271875 6.1680678125 -4.0091750320
1.6432450000 5.6511406250 -5.5944117584
-1.6587518750 2.3709259375 -3.2504986800
-0.5547268750 2.4852656250 -3.2523767200
1.1213996875 2.7304193750 -4.0231761440
1.6567362500 2.8555090625 -3.1810371040
-1.7230771875 3.4635693750 -3.2559903280
-1.6851162500 2.9190550000 -2.4177627920
-0.5313456250 3.6136125000 -3.2362255760
-0.6105059375 3.0493584375 -2.4523964400
0.5649528125 3.8137775000 -3.2154894240
0.5026968750 3.2570350000 -2.3466045040
1.6346853125 4.0206209375 -3.2228979680
1.6443468750 3.4489359375 -2.4418146560
-1.7316368750 4.5776993750 -3.2133652960
-1.6039806250 4.0146815625 -2.4158199920
-0.5705696875 4.7588368750 -3.2828916320
-0.5608409375 4.2050371875 -2.4633797360
0.5942600000 4.8975790625 -3.2434916480
0.5254600000 4.3768759375 -2.3872090240
1.6767043750 5.0971393750 -3.2482709360
1.6645300000 4.5682662500 -2.3707729360
-1.6668278125 5.7578075000 -3.1919815440
-1.6950465625 5.1601881250 -2.4509976240
-0.6001993750 5.8612090625 -3.2155800880
-0.5451862500 5.2767853125 -2.4162344560
0.5497550000 6.0272831250 -3.2748872960
0.5361965625 5.4766681250 -2.4598697440
1.7238968750 6.1770037500 -3.2379481920
1.6415115625 5.6378643750 -2.3960552400
2.2206678125 3.5058571875 -4.9187162800
0.5412625000 2.7544590625 -3.2440485840
1.6638715625 2.2767156250 -2.4233062480
2.2235434375 2.4343778125 -4.8512234080
2.2032528125 2.9866590625 -4.0215312400
2.2186790625 4.0212525000 -3.9925317120
2.2335140625 5.1408650000 -4.0826776320
2.2285421875 5.7176965625 -4.8329092800
-0.5375537500 3.5859178125 -6.4745831160
1.6477196875 2.8544340625 -6.4229465357
1.6334087500 4.0463134375 -6.4561746326
6.6852100000 4.6428981250 -4.8570518080
6.6960406250 5.2204553125 -4.0801519920
2.2435921875 4.5512409375 -4.8553032880
2.2533881250 6.3220212500 -4.0925600080
6.7114131250 2.4684150000 -4.8727884880
6.7153906250 2.9990215625 -3.9945004160
6.6749034375 3.5263762500 -4.8734749440
6.6997896875 6.3370578125 -4.0380838960
2.7911837500 2.4293118750 -5.6576408320
3.3389903125 2.5626656250 -4.8246977120
3.3089843750 3.1550712500 -4.0527973680
3.8915671875 2.6649115625 -5.6727312072
4.4404218750 2.6335081250 -4.8485423440
4.4642465625 3.2093050000 -4.0862394320
5.0196050000 2.6801765625 -5.6460500872
5.5850684375 2.6119812500 -4.8392946160
6.1389890625 3.0486193750 -6.4334105860
5.5887771875 3.1878453125 -4.0588977600
6.1281584375 2.4710084375 -5.6572017592
2.8104934375 3.5505503125 -5.6965965624
3.3379153125 3.7026359375 -4.8570518080
3.3268696875 4.2603593750 -4.0386796880
3.9210356250 3.7237059375 -5.6539909584
4.4642734375 3.8176340625 -4.8084818080
4.4240818750 4.4010768750 -4.0710855920
5.0072425000 3.7554050000 -5.6440451176
5.5896640625 3.7501643750 -4.8716746160