ITEM: TIMESTEP
94000
# source: voids-relax.94000.cfg
ITEM: NUMBER OF ATOMS
2298
ITEM: BOX BOUNDS pp pp pp
-6.7187500000 6.7187500000
-6.7187500000 6.7187500000
-6.4760000000 6.4760000000
ITEM: ATOMS x y z
-5.5647213750 -6.6993379188 -4.8282077040
-5.6313203125 -6.0983621250 -4.0899437040
-5.0377993750 -6.5690240000 -5.7018693216
-4.4959993750 -6.4934931563 -4.8289200640
-3.8967003125 -5.2402084375 -5.6978969432
-4.5115868750 -5.9328161563 -4.0396122320
-3.9580693750 -6.3756583750 -5.6775946832
-3.3722212500 -6.3144599688 -4.8904550160
-2.7938578125 -5.7356208438 -6.4577116465
-3.3484637500 -5.8010077188 -4.0110401200
-2.7998509375 -6.2877448750 -5.6694906168
-6.7186658619 -5.1163146875 -4.0316597040
-6.2517256563 -5.6141283750 -5.6134511984
-5.6517251563 -5.5535628750 -4.9093390320
-5.0432684375 -4.9329331250 -6.4607771258
-5.5910360313 -5.0079546875 -4.0799318080
-5.0353537500 -5.4564742500 -5.6063742256
-4.4460521875 -5.3715331250 -4.8496562160
-4.5186281250 -4.7954003125 -4.0833511360
-3.3772737500 -4.6458006250 -4.0241864000
-2.8378387500 -5.1322112500 -5.7151166272
-6.1710710938 -4.5029196875 -5.6855057648
-5.0981471875 -4.3686925000 -5.6438715608
-5.6389326563 -3.8576912500 -4.0244324880
-4.5450596875 -4.2198856250 -4.8689028880
-3.9380206250 -4.1527787500 -5.6011869496
-3.9052062500 -3.6256793750 -6.4755167389
-4.4401531250 -3.6791471875 -4.0350401760
-3.3612965625 -4.1161346875 -4.8453820560
-3.3696681250 -5.2349409375 -4.8106318400
-3.8971034375 -3.5728162500 -3.1926939040
-2.8102784375 -4.0242356250 -5.6496352008
-6.1150058125 -3.3365850000 -5.6585241584
-6.7056671559 -2.9843478125 -4.1054602000
-5.5850388750 -3.3066328125 -4.8419109200
-5.6804840938 -4.4132781250 -4.8212395280
-5.6513018750 -2.7254475000 -4.0652183360
-5.0580093750 -3.2312618750 -5.7338542856
-4.5421975000 -3.0956371875 -4.8201515600
-3.9183615625 -2.5209421875 -6.4682167676
-4.5231431250 -2.5447803125 -4.0132937680
-3.9824046875 -3.0580793750 -5.6541865336
-3.4178818750 -2.9413881250 -4.8680610080
-2.7815893750 -2.4040762500 -6.4636040164
-3.3421078125 -2.4167881250 -4.0286548400
-2.8281906250 -2.9453118750 -5.6219813856
-6.1446905938 -6.1903861563 -3.1849745120
-5.0694581250 -6.0091035313 -3.2368602240
-5.0514518750 -6.5571748125 -2.3828312480
-3.9467012500 -5.7997768438 -3.2610027520
-3.9260612500 -6.3565905625 -2.4440942080
-2.7865881250 -5.7473302813 -3.2406163040
-2.7589875000 -6.3005521563 -2.4404806000
-6.1521618438 -5.0765665625 -3.2610675120
-6.2050410938 -5.6190102188 -2.4301319520
-5.0574450000 -4.8947034375 -3.2171990880
-5.0413065625 -5.4601090938 -2.4095123680
-3.9589696875 -4.7040790625 -3.2520788240
-3.9177971875 -5.2656053125 -2.4174519440
-2.8147800000 -4.0621831250 -2.4156257120
-6.1948971250 -3.9646403125 -3.2286745600
-6.1485404375 -4.5251184375 -2.4320618000
-5.0466681250 -3.7830862500 -3.2962451440
-5.0573912500 -4.3277081250 -2.4268162400
-3.9522375000 -4.1636228125 -2.4304039440
-3.3834818750 -3.5200337500 -4.0820429840
-6.1971626875 -2.8060993750 -3.2041305200
-6.1495415313 -3.3907918750 -2.4565281280
-5.0952446875 -2.6936006250 -3.2245817280
-5.0217550000 -3.2595209375 -2.4260520720
-3.9350106250 -2.4615484375 -3.2784102400
-3.9476150000 -2.9963206250 -2.4273343200
-2.7740643750 -2.3784240625 -3.2515477920
-2.8252612500 -3.4881868750 -3.2034181600
-2.2425440625 -6.2689794063 -4.8378569440
-2.3109812500 -5.1762325000 -4.8728921040
-2.8042718750 -4.5965118750 -3.2494495680
-2.2964821875 -3.5170506250 -4.0316726560
-6.2042012500 -2.2885675000 -5.6870302152
-5.1552431250 -5.9905665000 -6.4608431810
-2.8453637500 -5.1756278125 -2.4619161600
-2.8078596875 -2.9119868750 -2.4110666080
-2.2515471875 -2.9681556250 -4.8374554320
-6.6663495281 -6.2528275313 -4.0511395120
-6.1363566563 -6.6958507531 -5.6071202608
-6.1913214063 -3.9163325000 -6.4500382341
-2.1930268750 -5.7135766250 -4.0155603680
-1.6690584375 -4.6477490625 -3.1941963360
-1.7013621875 -5.2409071875 -5.6118969584
-2.2160453125 -4.6436506250 -4.0311934320
-1.6568303125 -5.7802669375 -6.4690630124
-1.6965515625 -6.3513190313 -5.6902112264
-1.1617525000 -6.4646939063 -4.8522336640
-1.0853871875 -5.8790271875 -4.0866279920
-0.5728137500 -6.4805031250 -5.6366987432
-0.0009675000 -6.6219795750 -4.8762725760
0.5331059375 -6.1664015625 -6.4617072090
-0.0140690625 -6.0456562188 -4.1007715760
1.1324856250 -6.2085778438 -4.0343666720
-1.1201903125 -5.3033646875 -4.8686568000
-0.5433050000 -5.4154979375 -5.6380327992
-0.6302053125 -4.2625093750 -5.7162434512
-1.1312896875 -4.7570900000 -4.0578227440
-0.5375403125 -4.8678687500 -6.4505950406
0.0535618750 -5.4737938438 -4.8652763280
0.0109381250 -4.9121318750 -4.0488599600
0.6192806250 -5.5889774063 -5.7030609056
1.1523731250 -5.6863683750 -4.8891598160
1.1185106250 -5.1172284375 -4.0651794800
1.7964325000 -5.7369981875 -5.6648822952
-2.2297246875 -4.0749353125 -4.8401624000
-1.7048290625 -3.5392896875 -6.4363789254
-1.7084571875 -4.1285106250 -5.6927821984
-1.1350521875 -4.1750581250 -4.8315104640
-1.1040518750 -3.6186381250 -4.0082036320
-0.0491543750 -4.3785556250 -4.9107637520
1.0498450000 -4.0228381250 -4.0824963040
-0.0079415625 -3.8270000000 -4.0784164240
0.5496743750 -4.4392796875 -5.6416723112
1.1432625000 -4.5715718750 -4.8993659920
1.1416365625 -3.4149525000 -4.7955816160
1.7133887500 -4.6200409375 -5.6469036240
-2.2136534375 -2.3771340625 -4.0668502880
-1.7097068750 -2.9611009375 -5.6976689880
-1.1671409375 -3.1021275000 -4.8768683680
-1.1301475000 -2.5181740625 -4.0895033360
-0.5700053125 -3.1467400000 -5.6383812080
0.0065440625 -3.2510150000 -4.8808834880
0.5895434375 -3.3463540625 -5.6413860720
1.0915281250 -2.8464790625 -4.0087217120
1.6770134375 -2.9471796875 -3.2725429840
1.6421565625 -3.4959806250 -5.6869201232
-1.6193128125 -5.8006865625 -3.2213566800
-1.6957990625 -6.3745887500 -2.4405971680
-0.5351215625 -5.9466648438 -3.2062416960
-0.6136637500 -6.5238619063 -2.4311163040
0.5376881250 -6.1490618125 -3.2746023520
0.5637568750 -6.6685180719 -2.3868075120
1.6781959375 -6.3422500625 -3.2366400400
-1.7387050000 -5.2236803125 -2.4513343760
-0.5671565625 -4.8667265625 -3.2680227360
-0.5583684375 -5.3881459063 -2.3823779280
0.5656246875 -5.0453109375 -3.2417172240
0.5517168750 -5.6038365938 -2.4200682480
1.6584025000 -5.1568556250 -3.1844952880
1.6531081250 -5.7637428438 -2.4739097120
-1.6976265625 -3.5444093750 -3.2789283200
-1.6796606250 -4.0701784375 -2.4061189440
-0.5404293750 -3.7475171875 -3.2235455680
-0.5877025000 -4.3189737500 -2.4267385280
0.5381450000 -3.8900890625 -3.1948439360
0.5225171875 -4.4816212500 -2.4438351680
1.6129568750 -4.0432631250 -3.2589951920
1.6955840625 -4.5835850000 -2.4114810720
-1.7032165625 -3.0107525000 -2.4185787680
-0.0703721875 -2.7062721875 -4.0622782320
-0.5802043750 -3.1842575000 -2.4386802720
0.4912884375 -2.7986953125 -3.2690329920
0.6043515625 -3.3189012500 -2.4025312400
2.1738650000 -5.3105134375 -4.0558022320
2.2032125000 -4.1653293750 -4.0007044240
1.1095478125 -2.3019646875 -4.8439832400
1.6851296875 -2.3744868750 -5.6680684872
-1.6650540625 -2.4379656250 -3.2190900800
-0.5937090625 -2.5874578125 -3.1893652400
1.7040900000 -3.4947175000 -2.4171670000
1.6549893750 -2.4021143750 -2.4523575840
1.6643418750 -6.2784138750 -6.4709193578
2.2063703125 -3.6158296875 -4.8561581200
2.2128068750 -2.5049918750 -4.8343858080
0.5907931250 -2.2538315625 -5.7265661952
0.5948378125 -2.2401790625 -2.4438222160
0.5890596875 -6.7155849716 -5.6416036656
-1.6740168750 -4.7236843750 -6.4648341715
0.5351350000 -5.0013703125 -6.4568517632
-0.5220737500 -3.6863765625 -6.4753672210
1.6390793750 -4.0963815625 -6.4505388289
-1.6765565625 -2.3741643750 -6.4751936163
1.7069925000 -2.9458493750 -6.4661724887
6.6682518750 -4.5748506250 -4.8979153680
2.2584406250 -6.3637030313 -4.0272430720
2.3164234375 -5.8335533438 -4.9590358560
2.2765275000 -3.0703746875 -4.0362706160
6.6102556250 -5.6796778438 -4.8295547120
6.6825628125 -4.0285221875 -4.0411146640
6.6974381250 -3.5123878125 -4.9609786560
3.3420809375 -6.5662921563 -4.0837785520
4.3988193750 -6.5518226563 -4.0749323360
5.0452706250 -6.5229320313 -6.4359038460
5.5563928125 -6.4492152500 -4.0268415600
2.7752334375 -4.2465725000 -6.4343336750
2.8108025000 -6.3620824688 -6.3978846747
3.2630012500 -5.9876357813 -4.9458248160
3.8810725000 -4.8836846875 -5.6848866592
3.3569965625 -5.4911255313 -4.0253002720
3.7949918750 -5.9915555000 -5.6554856192
4.4426793750 -6.0155118750 -4.9200373840
4.4797803125 -5.4701025625 -4.0967176000
5.0132625000 -5.9584360938 -5.6131001992
5.6353918750 -5.9155731563 -4.8591888880
6.1424828125 -5.8137746875 -6.1733739296
5.5115250000 -5.3373212500 -4.0546883600
6.1257262500 -6.6087795156 -5.7493953904
2.2746462500 -4.6956940625 -4.8096733920
2.8156265625 -4.8996081250 -5.7020804392
3.3261440625 -4.8958725000 -4.7976798400
3.3544568750 -4.3022709375 -4.0179305840
3.9428850000 -3.7987140625 -5.6411127848
4.3994643750 -4.8685406250 -4.8138957440
4.5030137500 -4.2923406250 -4.0592733680
4.9589481250 -4.8526171875 -5.6041283488
5.6215243750 -4.8126540625 -4.9546710320
6.1742087500 -4.2933484375 -6.3617801976
5.6041631250 -4.2945712500 -4.0700753360
6.1251350000 -5.0048506250 -5.8121258120
2.8149009375 -3.1519940625 -6.4542438780
2.7730296875 -3.7004053125 -5.6444025928
3.3554243750 -3.8005146875 -4.8898592240
3.8928437500 -3.2611871875 -6.4409929458
3.3487862500 -3.2185096875 -4.0933630320
4.4990496875 -3.7060087500 -4.8255007360
4.4126868750 -3.1574362500 -4.0110530720
5.0386190625 -3.7690843750 -5.7047874072
5.5843562500 -3.7255603125 -4.8641365520
5.6048350000 -3.1412575000 -4.0680807280
6.1170321875 -3.6407562500 -5.7197573288
2.8095662500 -6.4832107813 -3.1978358480
3.8807500000 -6.5747349375 -3.1948957440
4.9758121875 -6.5374539375 -3.2865959040
6.1617253125 -6.3418469375 -3.3026304800
2.7624946875 -5.3409628125 -3.2833060960
2.7954837500 -5.8896871563 -2.4376441120
3.9148678125 -5.4574054688 -3.2520917760
3.9261284375 -5.9925901875 -2.4007568160
4.9912250000 -5.3933663750 -3.1881088960
5.0651715625 -5.9962613125 -2.4604396320
6.1232000000 -5.2463225000 -3.2839796000
6.1406150000 -5.7959861250 -2.4575772400
2.7956987500 -4.2492868750 -3.2405126880
2.8093781250 -4.8126271875 -2.4251065760
3.9520090625 -4.3881231250 -3.2641241840
3.8724993750 -4.9141609375 -2.3911852880
5.0547171875 -4.2659225000 -3.2283119040
5.0174818750 -4.8219125000 -2.4235782400
6.1381021875 -4.0861690625 -3.1978488000
6.1741415625 -4.6924153125 -2.4654132000
2.8235143750 -3.0998700000 -3.2115649680
2.7635428125 -3.7011443750 -2.4526036720
3.8971303125 -3.2537159375 -3.1929918000
3.9034593750 -3.8345518750 -2.4356883600
5.0448943750 -3.1877109375 -3.2905333120
5.0112468750 -3.7114643750 -2.3877141520
6.1614162500 -2.9558065625 -3.2726336480
6.1268415625 -3.5171984375 -2.4289403680
6.6783031250 -2.3706168750 -4.8545132160
2.7707184375 -2.5656621875 -5.6631752216
3.3489743750 -2.6495256250 -4.9054404800
3.9423340625 -2.6542690625 -5.6747025016
4.5119093750 -2.6513934375 -4.9070206240
5.0931350000 -2.6264803125 -5.7201692024
5.6047275000 -2.5749340625 -4.8395277520
6.1346890625 -2.5401981250 -5.7093698248
2.7624946875 -2.5370268750 -2.4135533920
3.8943890625 -2.6587437500 -2.4452080800
5.0388878125 -2.6567818750 -2.4383564720
6.1470381250 -2.4441468750 -2.3844113920
2.7905925000 -5.4401624688 -6.3908538110
-6.1970780313 -2.2220518750 -2.4407784960
-6.1497874375 -1.6955168750 -6.4566833872
-5.6383750000 -2.1634509375 -4.8964906480
-5.5630390000 -1.6469403125 -4.0315690400
-5.0488987500 -2.1099025000 -5.6401323184
-4.4618950000 -1.9999434375 -4.8676983520
-3.9447662500 -1.3202075000 -6.4550746193
-4.5002859375 -1.4329481250 -4.0690132720
-3.9297296875 -1.9184181250 -5.7213802144
-3.3962609375 -1.8476696875 -4.8214726640
-3.3832265625 -1.2686746875 -4.0304422160
-2.8469090625 -1.8296903125 -5.6863800248
-6.1830425625 -1.1400106250 -5.7050386760
-5.6430216875 -1.0721512500 -4.8327020480
-5.0386862500 -0.4140228125 -6.4567971058
-5.6144199688 -0.5147234375 -4.0223472160
-5.0922615625 -0.9793250000 -5.6771698576
-4.5210871875 -0.8849668750 -4.8952602080
-4.4317412500 -0.3498184375 -4.0350142720
-3.9216000000 -0.7778162500 -5.6172124592
-3.3212259375 -0.7466009375 -4.8898462720
-3.3770453125 -0.1800759375 -4.0902416000
-2.7612181250 -0.6988306250 -5.6643421968
-6.6576738750 0.4355362500 -4.0709172160
-6.1181260000 -0.0340103125 -5.6198948184
-5.5483061250 0.0408365625 -4.8329610880
-5.6310354375 0.6353115625 -4.0873792080
-5.0248590625 0.1848596875 -5.7039442320
-4.4948840625 0.2276984375 -4.8210063920
-4.4974371875 0.7933903125 -4.0206505040
-3.9406140625 0.3231315625 -5.6621520136
-3.3620087500 0.4119534375 -4.8772180720
-2.7624812500 0.9768928125 -6.4646131326
-3.3230131250 0.9152684375 -4.0183320960
-2.7950940625 0.4247593750 -5.6463712968
-6.6965534000 1.5571375000 -4.0080093520
-6.1793902500 1.0514575000 -5.6259537640
-5.6079081563 1.2034490625 -4.8844970960
-5.5480279688 1.7421315625 -4.0636640960
-5.0031709375 1.2789006250 -5.6100733168
-4.4172018750 1.3349215625 -4.8415482640
-4.5082812500 1.9287381250 -4.0842059680
-3.8912581250 1.4522846875 -5.7141970352
-3.3650321875 1.5056987500 -4.8151132320
-2.8225737500 1.5562775000 -5.6906697272
-6.1717241563 -1.6760459375 -3.2888106960
-5.0365496875 -1.5233421875 -3.1837311200
-5.0475281250 -2.1142965625 -2.4511271440
-3.9461368750 -1.3619846875 -3.2289465520
-3.9059453125 -1.9331993750 -2.4185269600
-2.8036940625 -1.2678415625 -3.2561587040
-2.8455653125 -1.8298381250 -2.4245755440
-6.2008996563 -0.5974715625 -3.2627253680
-6.1362800625 -1.1600459375 -2.4028420880
-5.0341846875 -0.3816384375 -3.2835651360
-5.0802887500 -0.9288671875 -2.4441201120
-3.8973050000 -0.2076631250 -3.1845730000
-3.9380206250 -0.8041000000 -2.4374239280
-2.8370862500 -0.1475706250 -3.1937041600
-2.7836318750 -0.7385250000 -2.4202884320
-6.1439878125 0.5310231250 -3.1743538720
-6.1317072813 -0.0745109375 -2.4263888240
-5.0799259375 0.6961296875 -3.2493977600
-5.0146734375 0.1376403125 -2.4053547760
-3.9178509375 0.9042496875 -3.2739029440
-3.9492678125 0.3713050000 -2.4210914560
-6.1183396563 1.6733987500 -3.2635154400
-6.2016199063 1.1214668750 -2.4353257040
-5.0266328125 1.8216950000 -3.1819696480
-5.0065437500 1.2385343750 -2.4177498400
-2.7713634375 2.1143906250 -3.2690977520
-3.8854128125 1.4400162500 -2.4117401120
-2.7760800000 0.9835443750 -3.2206831760
-2.8300181250 1.5627946875 -2.4421773120
-2.3007284375 -1.8323240625 -4.8828003840
-2.2404746875 -1.2749096875 -4.0644800720
-6.6673827375 2.1241462500 -4.8382066480
-3.3688215625 2.0683940625 -3.9980233600
-6.1635971563 2.2251559375 -2.4331497680
-3.9527884375 1.9985862500 -3.2459784320
-2.7651418750 0.4241681250 -2.4181384000
-2.3059556250 -0.1510912500 -4.0379932320
-2.2769978125 1.5273196875 -4.8572201840
-6.7009918063 -1.2446887500 -4.8308628640
-6.1484786250 2.1991409375 -5.7146490600
-5.0409571875 -1.5546381250 -6.4637708511
-2.7841962500 -1.2574409375 -6.4640068754
-3.9072487500 -0.2400340625 -6.4671945180
-2.8303003125 -0.1335015625 -6.4628212105
-6.1292186563 1.6107262500 -6.4514840658
-3.9547771875 2.0507506250 -6.4682616592
-2.1822634375 -0.7049043750 -4.8552255760
1.7065087500 -1.8278493750 -3.2434009840
-1.6618425000 0.9215840625 -3.2183647680
-1.6812193750 -1.8571834375 -5.6001507896
-1.1641712500 -1.4156271875 -4.0767844720
-0.4990553125 -2.0597537500 -5.6686189472
-0.6125753125 -1.4906756250 -3.2609638960
-1.0796493750 -1.9550756250 -4.8949105040
0.0588159375 -2.1245762500 -4.8328833760
-0.0192962500 -1.5715021875 -4.0176844960
1.1209025000 -1.7270009375 -4.0368534560
-1.6928293750 -0.1758431250 -6.4454058218
-1.6407456250 -0.7619734375 -5.6856663696
-1.0926837500 -0.8152665625 -4.8230657600
-0.5333478125 -0.3738715625 -3.2484652160
-0.5581534375 -0.9319712500 -5.6884147840
-0.0029025000 -1.0306965625 -4.8638386560
0.5749637500 -1.1193571875 -5.6546722336
0.0166087500 -0.4723550000 -4.0651017680
1.1371215625 -1.1763590625 -4.8622196560
1.7173796875 -0.7613150000 -6.4748172855
1.1203381250 -0.6168753125 -4.0655809920
1.6759250000 -1.3161628125 -5.6886854808
-2.2142178125 0.3959762500 -4.8611575920
-2.2148628125 0.9543984375 -4.0476554240
-1.6663978125 0.3937859375 -5.6861080328
-1.1164546875 -0.2589137500 -4.0033336800
-1.1240334375 0.2724721875 -4.8416518800
-0.5622653125 0.1786112500 -5.6446810608
0.0056706250 0.1232621875 -4.8357716720
0.0051196875 0.6806900000 -4.0537299120
0.5202731250 -0.0398959375 -5.6913056704
1.0915281250 -0.0214865625 -4.8500706800
1.6207103125 -0.1681971875 -5.7117193176
1.1797453125 0.5103965625 -4.0227357760
-2.1999875000 2.0629250000 -4.0527585120
-1.6928428125 1.5009015625 -5.6075722856
-1.1232271875 0.8642865625 -4.0663192560
-1.0933287500 1.4257993750 -4.8520005280
-0.5718731250 1.2519046875 -5.6856870928
0.0007928125 1.2635281250 -4.8484128240
0.0649703125 1.8112003125 -4.0315690400
0.5280400000 1.1203246875 -5.6928443680
1.0983678125 1.0373884375 -4.9129655920
1.7185756250 1.0211693750 -5.6301916584
1.1845693750 2.1625103125 -4.8780988080
1.7136171875 0.4354153125 -6.4026314532
-1.6927890625 -1.3018653125 -3.2096610240
-0.5459387500 -0.9361906250 -2.4430321440
0.5531681250 -1.6789887500 -3.2478435200
1.6713696875 -1.2698840625 -2.4282409600
-1.6532828125 -0.7315509375 -2.4109370880
-0.5671700000 0.1912290625 -2.4570980160
-0.5534906250 0.7628200000 -3.2479082800
0.5789546875 -0.5328909375 -3.2358758720
1.6898596875 -0.7261087500 -3.2648235920
-1.6924665625 1.4960103125 -2.4525648160
-1.7158343750 -0.2038603125 -3.2871528400
-0.5210928125 1.8486506250 -3.2621166240
-1.6480287500 0.3326453125 -2.4408950640
-0.5602631250 1.3175603125 -2.4108334720
0.5797071875 0.5632462500 -3.2875932080
1.7193281250 0.4075190625 -3.2017473520
1.6436346875 -0.1748487500 -2.4349371440
-1.6483378125 2.0583831250 -3.2372617360
0.6015028125 1.6845787500 -3.1869950240
1.1205262500 1.5961196875 -4.0784552800
1.6588459375 0.9769196875 -2.4277617360
1.6658065625 1.5700375000 -3.1904532080
1.7659025000 2.1192415625 -5.6533912808
-1.7098815625 -1.8659581250 -2.4282798160
-0.5118746875 -2.0271006250 -2.4009381440
0.5472556250 -1.1118993750 -2.4623953840
0.5526037500 0.0271975000 -2.4215318240
0.5145621875 1.0905606250 -2.4309608800
-1.0835865625 1.9859684375 -4.0530175520
1.7608903125 2.1340765625 -2.4092792320
2.1709490625 -0.2455300000 -4.9052980080
2.2390234375 -1.9178134375 -4.0876641520
2.2319015625 -1.3224515625 -4.8341526720
2.1775200000 1.4117975000 -4.0725880240
0.5938837500 0.5447831250 -6.4544640620
-0.5208106250 1.8405075000 -6.4392645014
0.5771540625 1.7428168750 -6.4000839243
1.6284100000 1.5584006250 -6.4718684933
6.7054200000 -0.0977981250 -4.8998711200
6.6547606250 1.0311131250 -4.8602509520
2.3047059375 2.0007228125 -4.7983792480
6.7003406250 -1.8247453125 -4.0466710720
6.6772146875 -0.6639468750 -4.0748287200
3.4003728125 -2.1073359375 -4.0720569920
4.4993318750 -2.0954975000 -4.0599857280
5.5586771875 -1.9628559375 -4.0827553440
2.8174540625 -0.8340118750 -6.4135747275
2.8327056250 -0.9159134375 -3.2229627280
2.7508712500 -1.4843062500 -5.6936551632
3.3150984375 -1.5261237500 -4.8712601520
3.3643334375 -0.9610768750 -4.0670057120
3.8819593750 -1.5422353125 -5.6779275496
4.4401396875 -1.5470728125 -4.8865305600
4.4839190625 -1.0124350000 -4.0432387920
5.0114887500 -1.5127534375 -5.6650480808
5.5876215625 -1.4239853125 -4.9184183840
5.6243328125 -0.8773746875 -4.0543645600
6.1796778125 -1.4155734375 -5.6462236440
2.2739071875 -0.7617853125 -4.0165058640
2.2677393750 0.3022228125 -4.0552193920
2.7931321875 -0.3072887500 -5.6042177176
3.3725571875 -0.4027353125 -4.8708845440
3.3071165625 0.1569903125 -4.0764218160
3.9650434375 -0.4211715625 -5.6211913136
4.5340006250 -0.4413950000 -4.8227031040
4.4261781250 0.1380300000 -4.0423580560
5.0564909375 -0.3489584375 -5.7147319528
5.5858209375 -0.3000325000 -4.8532568720
6.2064050000 0.2841225000 -6.4415866655
5.6306484375 0.2605934375 -4.0011447920
6.1470246875 -0.2819053125 -5.6700074016
2.2852215625 0.8466431250 -4.8825542960
2.8719968750 0.8124715625 -5.6537370992
3.4060031250 0.7683293750 -4.8148412400
3.3610278125 1.3004946875 -3.9794760960
3.9381684375 0.6362521875 -5.6767372608
4.4891865625 0.6937915625 -4.8335050720
4.5297543750 1.2853909375 -4.0624595600
5.0482671875 0.7681681250 -5.6464218096
5.6152087500 0.7902593750 -4.8400199280
5.5818165625 1.4009803125 -4.0751913760
6.1460840625 0.9053112500 -5.7259224808
2.8178437500 -2.0159475000 -3.3010762400
3.9272168750 -2.0905525000 -3.2268742320
5.0332306250 -2.0632071875 -3.1904791120
6.1164409375 -1.9074665625 -3.2801069520
2.7815356250 -0.3498050000 -2.4372426000
2.7686356250 -1.4854887500 -2.4259225520
3.9228228125 -0.9768525000 -3.2403702160
3.8787209375 -1.5365915625 -2.4240445120
5.0531046875 -0.9146906250 -3.2405385920
5.0245634375 -1.4650771875 -2.4461794800
6.1585675000 -0.7809471875 -3.1854796400
6.1972540625 -1.3683675000 -2.4355329360
2.7439106250 1.3658143750 -3.2800810480
2.8043659375 0.2585106250 -3.1628006880
3.8736281250 0.1158850000 -3.2379481920
3.9628934375 -0.4319484375 -2.3970007360
5.0268075000 0.1824543750 -3.3085106880
5.0288768750 -0.3320003125 -2.4309479280
6.2124653125 0.3881959375 -3.2588138640
6.1219637500 -0.1781812500 -2.4588983440
3.9495231250 1.2185259375 -3.2663130720
3.9521703125 0.6750596875 -2.4211432640
5.0430534375 1.3044721875 -3.1943129040
5.0595546875 0.7172265625 -2.4396128160
6.1343262500 1.5009015625 -3.2805861760
6.1385187500 0.9405040625 -2.4429285280
2.8161640625 1.9176387500 -5.7121298960
3.3445265625 1.8575462500 -4.8142065920
3.8900756250 1.7726884375 -5.6935541376
4.4249956250 1.8314909375 -4.8781247120
5.0378128125 1.8436787500 -5.6080515096
5.6292240625 1.9581393750 -4.8855073520
6.1976437500 2.0757981250 -5.6461847880
3.8843512500 1.7738171875 -2.4388097920
5.0459425000 1.8878209375 -2.4182679200
6.2115381250 2.0357946875 -2.4270105200
2.8594865625 0.8504593750 -2.4013785120
2.8369921875 1.9161203125 -2.4437704080
3.8765037500 -0.9354918750 -6.4543164092
5.0093387500 -0.9446562500 -6.4573493790
2.7836587500 0.2514693750 -6.4595712946
6.1606503125 1.4976631250 -6.4543758589
-6.1625288750 6.6536318750 -2.4340434560
-3.8971706250 3.1283037500 -3.1866582720
-6.1682586250 2.8037343750 -6.4540165704
-5.6330120938 2.3473968750 -4.8259929120
-5.5920425000 2.8882428125 -3.9942154720
-5.0646878125 2.3507293750 -5.6406737120
-4.4771734375 2.4807103125 -4.8846266160
-4.4184918750 3.0344562500 -4.0633014400
-3.8910431250 2.5805912500 -5.6220552120
-3.3040259375 2.5889762500 -4.8529978320
-2.7643759375 2.6744521875 -5.6701744824
-6.6914777875 3.8353178125 -4.0988287760
-6.1345036250 3.3558812500 -5.6426631392
-5.5543113438 3.4211337500 -4.8509773200
-5.6524346563 3.9950090625 -4.0542350400
-5.0187584375 3.4826775000 -5.7082961040
-4.5000843750 3.6224543750 -4.8166804240
-4.4985525000 4.1835506250 -4.0109494560
-3.9341371875 3.6629146875 -5.6408058224
-3.3622640625 3.7646231250 -4.8523113760
-2.7754081250 4.3272109375 -6.4594710462
-3.2970921875 4.3167834375 -4.0529009840
-2.7995687500 3.7631584375 -5.6369422408
-6.7091531928 4.9948934375 -4.0375140080
-6.1922996563 4.4574068750 -5.6414391752
-5.5987034688 4.5369568750 -4.8938095840
-5.5539203125 5.0664615625 -4.0427854720
-5.0122815625 4.6306296875 -5.6298082792
-4.4340659375 4.7285084375 -4.8467290640
-3.9276737500 5.9252790625 -5.6283822640
-4.4944809375 5.3057834375 -4.0433812640
-3.8931931250 4.7774881250 -5.6944439400
-3.3711193750 4.9077512500 -4.8177165840
-3.3654621875 5.4800946875 -4.0392236720
-2.8144709375 4.8874068750 -5.6502724392
-6.2230137500 6.2152200000 -6.4517554102
-6.1338774375 5.6006156250 -5.7164558640
-5.6222029688 5.6458462500 -4.8113830560
-5.6077858750 6.2072112500 -4.0087994240
-5.0778834375 5.7396131250 -5.6714101032
-4.5112643750 5.8374784375 -4.8860513360
-4.4291746875 6.3751128125 -4.0296003360
-3.3341259375 6.0148803125 -4.8957394320
-2.8209075000 6.5749821875 -6.4626731691
-3.3870696875 6.5653071875 -4.0555431920
-2.7442600000 6.0233190625 -5.6552395312
-6.1888972813 2.7750856250 -3.2785527120
-4.9920446875 2.9481471875 -3.2706001840
-5.0798721875 2.4113325000 -2.4291735040
-3.8971034375 2.5379271875 -2.4231637760
-3.3630971875 3.1816103125 -4.0806312160
-2.8157743750 3.2288968750 -3.2351505600
-6.1693618438 3.9113740625 -3.1811536720
-6.1154196875 3.3132037500 -2.4408173520
-5.0644056250 4.0455878125 -3.2431419440
-5.0287828125 3.4952415625 -2.4265701520
-3.8815965625 4.2290365625 -3.2981490880
-3.9383565625 3.7172021875 -2.4223218960
-2.7528734375 4.3572706250 -3.2265245280
-2.7905656250 3.7891062500 -2.4251195280
-6.1419130625 5.0259743750 -3.2553297760
-6.1575381875 4.4895628125 -2.4083466880
-5.0385115625 5.2140993750 -3.1703776080
-4.9908084375 4.6129056250 -2.4568519280
-3.9269212500 5.3150418750 -3.2376243920
-3.8958134375 4.7648434375 -2.4124524720
-2.8014231250 5.4562565625 -3.2359794880
-2.8236218750 4.9020671875 -2.4015598400
-6.1821449375 6.1098968750 -3.2535035440
-6.1458475625 5.5698303125 -2.3936720720
-5.0230450000 6.3529543750 -3.2611711280
-5.0548246875 5.8057121875 -2.4265442480
-3.9071412500 6.4852465625 -3.1592129840
-3.9006106250 5.8747003125 -2.4426306320
-2.8219153125 6.5436056250 -3.2067727280
-2.7654778125 5.9966725000 -2.3832457120
-2.2438206250 3.2434093750 -4.0157416960
-2.2604293750 5.4547784375 -4.0775486400
-2.7893293750 2.6574134375 -2.4365043360
-3.9063618750 5.3903321875 -6.4397854309
-2.2941709375 6.6055121875 -4.0424746240
-6.7097668700 3.2715071875 -4.8854166880
-6.6819710250 5.5541084375 -4.8809093920
-5.0133028125 2.9070821875 -6.4584330729
-5.0408765625 4.0851209375 -6.4413900542
-6.1320983125 5.0106153125 -6.4709451712
-2.7872196875 5.4570359375 -6.4472863226
-3.8948325000 6.4841043750 -6.4543204243
-4.9863606250 5.1737062500 -6.4693608178
1.1723412500 6.6827375000 -4.8488790960
-2.2205468750 2.6827565625 -4.8008012720
-2.2315656250 4.8964906250 -4.8982780240
1.6800637500 6.5667181250 -5.7111507248
1.6963903125 6.5511171875 -2.4095123680
2.2343337500 6.4956471875 -4.8452525360
-1.6555940625 3.1594250000 -6.4508535625
-1.7056487500 2.5722868750 -5.6854332336
-1.1400912500 2.5686990625 -4.8456410960
-1.0626375000 3.1117218750 -4.0247433360
-0.5914515625 2.4202146875 -5.6778925792
-0.0194843750 2.3393612500 -4.9221485600
-0.0031981250 2.8880681250 -4.0808773040
0.6163378125 2.3068021875 -5.6107403448
1.1619271875 3.3081781250 -4.7954132400
-2.2196868750 3.7822262500 -4.8561710720
-2.2002159375 4.3573646875 -4.0509322800
-1.6785990625 3.7354368750 -5.6926811728
-1.1186046875 3.6331506250 -4.9081863040
-1.1379546875 4.1942737500 -4.0802038000
-0.5000631250 3.5906343750 -5.6360835232
-0.0638281250 4.0009753125 -4.0478885600
0.0670128125 3.4551575000 -4.8792126800
0.6312534375 3.4080053125 -5.6881790576
1.1351462500 3.8677962500 -3.9847605120
1.6729015625 3.2240996875 -5.7133227752
-1.6289743750 4.8828784375 -5.6183444640
-1.0451687500 4.7605971875 -4.8718170880
-1.1792884375 5.2978284375 -4.0317374160
-0.5056531250 4.6865700000 -5.7043030024
0.0312421875 4.5911100000 -4.8012286880
0.0463325000 5.1513865625 -3.9892937120
0.5360756250 4.5286793750 -5.7265713760
1.0607025000 4.3970725000 -4.8444495120
1.2100871875 4.9750193750 -4.0689744160
1.6379371875 4.3468968750 -5.6382918392
-2.1979584375 6.0421450000 -4.8304224960
-1.6455428125 5.9702409375 -5.6821110456
-1.1028156250 5.8856518750 -4.8082616240
-1.0806303125 6.4415612500 -3.9995128400
-0.5885625000 5.8295637500 -5.7165827936
-0.0660990625 5.6805687500 -4.8520911920
0.0625381250 6.2582871875 -4.0689744160
0.5164165625 5.6489771875 -5.6276491808
1.0959759375 5.5226915625 -4.8809482480
1.1046296875 6.0861393750 -4.0899566560
1.6891475000 5.4460440625 -5.6227908856
-1.6505684375 3.1545203125 -3.2725947920
-1.6960006250 2.6181490625 -2.4136958640
-0.5215228125 2.9741218750 -3.1835756960
-0.6005756250 2.3972096875 -2.4206381360
1.0536746875 2.7097525000 -4.0510877040
0.5660278125 2.2533343750 -2.4157293280
1.6394825000 2.6561906250 -3.2874118800
-1.6567631250 4.2816309375 -3.1852983120
-1.6975862500 3.6798459375 -2.4175037520
-0.5923921875 4.1298678125 -3.1949086960
-0.5445950000 3.5533856250 -2.4133591120
0.5100875000 3.9330353125 -3.2913751920
0.6521084375 3.4170218750 -2.4110018480
1.7321878125 3.7615190625 -3.2823994560
1.7079734375 3.2068056250 -2.4465550880
-1.7233459375 5.4361137500 -3.2029648400
-1.6539950000 4.8525903125 -2.4242906000
-0.5819109375 5.2319578125 -3.3055317280
-0.4863434375 4.7100453125 -2.4254821840
0.6326106250 5.0526881250 -3.2634247760
0.5636896875 4.4888909375 -2.4599992640
1.7269068750 4.8922981250 -3.1772421680
1.6184259375 4.3025262500 -2.4337326080
-1.6939581250 6.5287168750 -3.3077594720
-1.6330056250 6.0053800000 -2.4221794240
-0.4947150000 6.3638925000 -3.2486465440
-0.5827978125 5.7808259375 -2.4726274640
0.5879846875 6.1940828125 -3.1781617600
0.4982893750 5.6025775000 -2.4389134080
1.6356259375 5.9913109375 -3.2310318240
1.6881531250 5.4577750000 -2.3721458480
2.1937121875 3.1439987500 -4.8207732560
2.2155481250 4.2847350000 -4.8848727040
0.5344765625 2.8412384375 -3.1805319760
2.2179937500 5.9737615625 -4.0163763440
0.5026834375 2.8354065625 -6.4755639631
-1.6919290625 4.3352734375 -6.4380738241
-0.5484650000 3.0235987500 -6.4181071504
1.7031225000 4.8807284375 -6.4694721661
1.6467656250 5.9865540625 -6.4571078242
2.7972037500 6.5707896875 -5.6602092136
6.6779940625 6.6385684375 -4.9110357440
2.2412675000 2.5851600000 -4.0185652320
2.2455809375 4.8528993750 -4.1005772960
3.3687946875 6.2713887500 -4.8683200480
3.9385715625 6.3205162500 -5.6422175904
4.5139518750 6.3140393750 -4.8299303200
5.0215937500 6.3147112500 -5.6879174272
5.6010590625 6.4317384375 -4.8730734320
6.1417975000 6.1942575000 -6.4168537854
2.7857684375 6.3680850000 -2.4517747440
3.9296490625 6.2897175000 -2.4071551040
5.0433490625 6.3741184375 -2.4149133520
6.1412331250 6.5547721875 -2.4727310800
6.6775640625 2.7050090625 -4.0649852000
6.6734521875 4.4503656250 -4.8509384640
6.6845381250 6.1138475000 -4.0577838880
3.4273150000 2.4511343750 -4.0304551680
4.5174321875 2.3693134375 -4.0428761360