ITEM: TIMESTEP
172000
# source: voids-relax.172000.cfg
ITEM: NUMBER OF ATOMS
2298
ITEM: BOX BOUNDS pp pp pp
-6.7187500000 6.7187500000
-6.7187500000 6.7187500000
-6.4760000000 6.4760000000
ITEM: ATOMS x y z
-6.7060858281 -5.8567384063 -4.8700167600
-5.5929508750 -6.3172925938 -4.0563591680
-4.4581056250 -5.6059435938 -4.8582045360
-3.8582556250 -6.6213400844 -5.6814958256
-4.4630371875 -6.1626511563 -4.0088512320
-3.9207937500 -6.0251089375 -6.4170233270
-3.3621700000 -5.8908642813 -4.0166353840
-3.3310621875 -6.4526633125 -4.8323005360
-6.6746035125 -5.3228759375 -3.9953163920
-6.1229850000 -5.8260915000 -5.6569025680
-5.5755936563 -5.7397931875 -4.8134553760
-5.6157771563 -4.5843778125 -4.8784744160
-5.0509950000 -5.5878432813 -5.6590137440
-4.4570306250 -5.0386190625 -4.0771859840
-3.9388268750 -4.8597390625 -3.2280010560
-3.3362625000 -5.3679990625 -4.9143773600
-2.7405109375 -5.3448731250 -5.6567316016
-6.7080570422 -4.2276928125 -4.0577838880
-4.4812987500 -4.4452056250 -4.8131963360
-5.5860964063 -4.0485171875 -4.0099132960
-3.9501278125 -4.3064096875 -5.6615121848
-3.9300521875 -5.4370718438 -5.6766401208
-4.4676731250 -3.8699731250 -4.0496370800
-3.3659593750 -4.3027412500 -4.8591629840
-3.3321909375 -4.8506687500 -4.0153531360
-2.8329340625 -4.1647515625 -5.6809868120
-3.9199068750 -3.7867278125 -3.2345806720
-2.7941400000 -4.7577618750 -6.4227996600
-6.6803925219 -3.6615843750 -4.8458094720
-6.1413984063 -3.5587471875 -5.6549908528
-5.5559426563 -3.4979559375 -4.8503167680
-6.1740112188 -4.7044553125 -5.6837455880
-5.5998940313 -2.9419390625 -4.0379025680
-5.0051462500 -3.3985318750 -5.6733580840
-4.4693393750 -3.2960575000 -4.8340490560
-3.9496440625 -2.6827296875 -6.4617325949
-4.4271053125 -2.7586650000 -3.9770540720
-3.9022096875 -3.2513509375 -5.6697898080
-3.3735918750 -3.1463234375 -4.8111887760
-3.2869468750 -2.5758746875 -3.9414231200
-2.8297493750 -3.0262056250 -5.6544520496
-6.1659043750 -6.3722613750 -3.2532704080
-5.0513040625 -6.1309090938 -3.2431419440
-5.0212040625 -6.7040198125 -2.4616441680
-3.9028950000 -6.0354289375 -3.1964370320
-3.8814487500 -6.6182389781 -2.4686512000
-2.7977009375 -4.7038371875 -3.1872281600
-2.7624275000 -5.9013267188 -3.2202169040
-6.0987276250 -5.2607140625 -3.2046874560
-6.1489838750 -5.8287104688 -2.4029586560
-5.5823083750 -5.1390240625 -4.0808643520
-5.0114753125 -5.6109396563 -2.3532618320
-5.0191481250 -5.0644996875 -3.2389843520
-2.7902700000 -4.1124125000 -2.4780932080
-2.2419259375 -4.5910696875 -4.0192387360
-6.1782426875 -4.1131918750 -3.2347360960
-6.1752152188 -4.6903593750 -2.4511660000
-5.0204784375 -3.9860328125 -3.2152044800
-5.0675768750 -4.5285450000 -2.3766920000
-3.9070203125 -4.3051734375 -2.3834011360
-3.3521187500 -3.7536984375 -4.0731449600
-6.1858483125 -3.0116259375 -3.2600831600
-6.0941387188 -3.5537484375 -2.4189025680
-5.0179925000 -2.8331490625 -3.2622590960
-5.0441956250 -3.3933987500 -2.4556344400
-3.8117753125 -2.6823803125 -3.2118499120
-3.9769490625 -3.2376043750 -2.3537928640
-2.3550025000 -2.4478825000 -3.9352838720
-2.8185021875 -3.4821265625 -3.2253718000
-2.7960346875 -5.3205781250 -2.4569037360
-2.2430681250 -4.0661606250 -4.9235991840
-6.1259815625 -2.4828334375 -5.6225642256
-5.5692941563 -2.3687759375 -4.8127948240
-5.0142300000 -2.2759228125 -5.6304791928
-6.1387512188 -2.4790843750 -2.4068572080
-2.7745750000 -6.4424736563 -5.6798988440
-2.7742256250 -6.4803956250 -2.3944491920
-2.2506468750 -5.7058823125 -4.0715130080
-3.9176090625 -5.4304767188 -2.4708400880
-2.8162178125 -2.9631703125 -2.5183739280
-5.0240393750 -4.5264621875 -5.6523965672
-3.8760737500 -4.8730421875 -6.4652886442
-2.7617153125 -3.5855012500 -6.4459108202
-2.2453793750 -6.3191738438 -4.7977057440
-2.2469381250 -3.5676696875 -4.0376694320
-2.2506468750 -2.9703728125 -4.8453043440
-6.7183118864 -2.4954512500 -4.8551090080
-5.0110184375 -2.3012256250 -2.4080746960
-4.4399381250 -6.6689381281 -4.8996509360
-6.1479505313 -4.1274087500 -6.4591348122
-5.0651043750 -3.9639550000 -6.4746079449
-5.0620406250 -2.8348959375 -6.4644955803
-5.0038159375 -6.1600563750 -6.4610539101
-1.6751053125 -4.6317315625 -3.2132098720
-1.1101793750 -6.2497503438 -4.8602639040
-1.6997228125 -6.2849364375 -5.6294417376
-2.1989796875 -5.1371965625 -4.8463405040
-1.0984618750 -5.1546787500 -4.8591629840
-1.1127862500 -5.7074491250 -4.0386537840
0.0170118750 -6.3711568125 -4.8810518640
0.0131418750 -5.3092906250 -4.8865305600
0.0262971875 -5.8471238750 -4.0148739120
1.1356165625 -6.6054198719 -4.9012958400
0.5939375000 -6.4596333438 -5.6910919624
1.0958415625 -6.0528452813 -4.0787790800
1.7641690625 -6.6152748000 -5.6178846680
-1.6425059375 -5.2055531250 -5.6951873848
-0.4959646875 -4.0451040625 -5.6514005584
-1.1238050000 -4.5986484375 -4.0352474080
-0.5308753125 -5.1462400000 -5.6917473336
-0.0227228125 -4.7625590625 -4.0633273440
0.6283509375 -5.3193687500 -5.6253217064
1.1811159375 -5.4626541563 -4.8328186160
1.0999534375 -4.9167409375 -4.0285382720
-1.6345509375 -4.0494578125 -5.6478543008
-1.0798778125 -4.0536906250 -4.8683330000
-1.1846365625 -3.5104662500 -4.0517741600
0.0369665625 -4.1554259375 -4.7926156080
1.1868806250 -3.7431096875 -4.0072063280
-0.0380953125 -3.5805965625 -4.0178658240
0.5546059375 -4.2591768750 -5.6975757336
1.7484740625 -3.8370378125 -6.4386811434
1.0384096875 -3.2273515625 -4.8979412720
1.0930734375 -4.3087209375 -4.7868001600
-1.7058100000 -2.8970309375 -5.6511855552
-1.1538512500 -2.8989525000 -4.7941957520
-1.1381562500 -2.3624200000 -3.9888922000
-0.6230565625 -2.9780859375 -5.6511518800
0.5752996875 -2.5397681250 -6.4189933262
-0.0554431250 -3.0108465625 -4.8135201360
0.4817746875 -3.1337593750 -5.6800244784
1.1011493750 -2.6639306250 -4.0990101040
1.6033490625 -2.7740375000 -6.4755968522
1.6264884375 -2.7289412500 -3.1715432880
1.6664918750 -3.2984493750 -5.5973725856
-1.6870243750 -5.7438405625 -3.2538014400
-0.5533025000 -5.7699885938 -3.2445019040
-0.5306065625 -6.2948869063 -2.4056008640
0.5856465625 -5.9118348438 -3.1867100800
0.5861034375 -6.5046543438 -2.4408432560
1.6560240625 -6.0509747813 -3.2070447200
1.7187637500 -6.6433497688 -2.4296268240
-1.6285578125 -5.2089931250 -2.4114163120
-0.5619293750 -4.6215056250 -3.2189346560
-0.5294912500 -5.2097321875 -2.4369058480
0.5387496875 -4.7746662500 -3.2397485200
0.5946093750 -5.3279015625 -2.4268421440
1.6955975000 -4.9718884375 -3.3042106240
1.7518200000 -5.4961834063 -2.4098750240
-1.6884218750 -3.4508709375 -3.1821250720
-1.6641268750 -4.0460581250 -2.4508162960
-0.6069718750 -3.5093778125 -3.2406292560
-0.5139575000 -4.0689556250 -2.4172058560
0.5672640625 -3.6926250000 -3.3038220640
0.5972162500 -4.2108825000 -2.4218167680
1.7455850000 -3.8564953125 -3.2152692400
1.6285040625 -4.4424106250 -2.4487310240
-1.6821734375 -2.8767940625 -2.3911464320
0.0437928125 -2.4526125000 -4.0328642400
-0.5708921875 -2.9494909375 -2.4176073680
0.5721956250 -2.5636331250 -3.1865028480
0.4995256250 -3.1574228125 -2.4443402960
1.7239909375 -5.5531261563 -5.6735445928
2.1494893750 -4.5001650000 -4.8766481840
-1.7806568750 -2.3648387500 -3.2716492960
-0.5644959375 -2.4024771875 -3.2606141920
1.6461071875 -3.3100996875 -2.4038264400
2.1527143750 -2.7928500000 -4.0671740880
-0.5547000000 -6.3349293125 -5.6713453432
-1.6878709375 -6.3042313438 -2.4001480720
1.6060365625 -4.4129287500 -5.7004692104
2.1860125000 -6.1832871250 -4.0516187360
-0.5354843750 -5.7453119688 -6.4182092122
0.5643615625 -5.8611123125 -6.4447213086
-1.7100696875 -4.6054478125 -6.4500426378
-1.6752128125 -3.4783775000 -6.4335552598
-0.5038525000 -2.4048153125 -6.4457849268
2.2780996875 -5.5900900313 -4.8022648480
2.2721468750 -3.3437337500 -4.8707032160
6.1888018750 -5.9932271250 -5.7060528176
6.1419587500 -4.8079509375 -5.6886220160
6.7042509375 -4.8049812500 -4.8584117680
6.6988087500 -3.0899128125 -4.0874310160
6.7046540625 -6.4189015938 -4.0652830960
3.3993918750 -6.3260430938 -3.9835818800
4.5711687500 -6.5188188125 -4.0429927040
5.6230293750 -6.5962081969 -4.0528491760
3.3611756250 -4.6571015625 -4.8959596160
2.7844381250 -5.7079503438 -5.7173391904
3.4235928125 -5.2223634375 -4.0734428560
3.9059050000 -5.8637836875 -5.6323844320
4.4728600000 -5.9758887188 -4.8599271520
5.0773728125 -4.9192000000 -5.6790893440
4.4601615625 -5.3894668125 -4.0936609280
5.0588425000 -5.9993008750 -5.6168005856
5.6512750000 -6.0108638438 -4.8679573920
5.5820181250 -5.4900478438 -4.0146278240
2.8026459375 -3.9870406250 -3.1776695840
3.3201240625 -4.1016759375 -4.0962124720
3.3169796875 -5.8036455000 -4.8577512160
3.4192525000 -3.4776250000 -4.8224440640
3.9595340625 -4.7784421875 -5.6113089376
4.5415928125 -4.8007081250 -4.8424937600
4.4573800000 -4.2512353125 -4.0034632000
5.0054015625 -4.3508206250 -6.4589749846
5.6197371875 -4.9249646875 -4.8105152720
5.0827612500 -3.1884096875 -6.4521064094
5.6221425000 -4.3151575000 -4.0583278720
2.2824265625 -3.9325784375 -4.0939847280
2.7939653125 -4.0134050000 -6.4462868168
3.9262628125 -3.6572843750 -5.7111908760
3.3470393750 -2.3536990625 -4.8244257200
4.5298484375 -3.1479896875 -4.0298593760
4.4641256250 -2.6208634375 -4.8470658160
5.0057912500 -2.6299606250 -5.6479682784
5.5696153125 -3.7722421875 -4.8683330000
6.1664015625 -3.7489415625 -5.6222378352
5.6208793750 -3.2108637500 -4.0439252480
2.7737553125 -6.2631824688 -3.3032392240
3.9806040625 -6.4324721250 -3.2627124160
5.0859325000 -6.5710020000 -3.1693155440
6.1695190625 -6.5598865000 -3.2039103360
2.3114381250 -5.0297906250 -3.9995128400
2.7966931250 -5.7358775000 -2.4515416080
3.9442421875 -5.2969281250 -3.1654169920
3.8865684375 -5.8955176875 -2.4234487200
5.0002012500 -5.4540837188 -3.2404867840
5.0800200000 -5.9761762813 -2.4034508320
6.1658640625 -5.4076800000 -3.2686832880
6.1878343750 -5.9676837813 -2.4441071600
2.7585575000 -4.5902768750 -2.4250288640
2.8751815625 -5.1443587500 -3.2274959280
3.8586587500 -4.1941259375 -3.2616244480
3.9750140625 -4.7042403125 -2.3950579360
5.0500946875 -4.3718637500 -3.2683724400
5.0901115625 -4.8831606250 -2.4078027040
6.1523190625 -4.2953371875 -3.2304878400
6.1708225000 -4.8826634375 -2.4273990800
3.3391650000 -2.9459300000 -4.0079057360
2.7301775000 -2.8903659375 -3.3033039840
6.1748000000 -3.2114550000 -3.1971105360
3.9372950000 -3.6104681250 -2.4588594880
3.9222584375 -3.0694071875 -3.2915306160
4.9984543750 -3.7987543750 -2.4474746800
5.0648893750 -3.2279428125 -3.1965665520
6.1706075000 -3.7685334375 -2.3835565600
2.8184887500 -2.3374262500 -5.7397578072
4.4680090625 -3.7175918750 -4.8493453680
3.9039834375 -2.5334928125 -5.6916553744
5.6125346875 -2.6656775000 -4.8912191840
6.1759018750 -2.6294768750 -5.6838155288
2.8505640625 -3.4116065625 -2.4019354480
3.8888259375 -2.5442159375 -2.4219592400
5.0600384375 -2.6302562500 -2.4333958560
6.1723678125 -2.6051953125 -2.4646231280
2.7907537500 -2.3669215625 -2.4411282000
6.1777293750 -6.5855826281 -6.4677666597
3.9302134375 -5.3191403125 -6.4677432425
2.8654259375 -5.1017081250 -6.4255590836
2.7603446875 -4.5443609375 -5.5953935200
2.8466268750 -3.4341412500 -5.6274859856
3.8752003125 -4.2383756250 -6.4627664235
5.0272509375 -3.7725109375 -5.6917382672
3.9909912500 -6.4238385313 -6.4466809462
5.0920600000 -6.5527713438 -6.4592710673
6.1680543750 -5.4076961250 -6.4353497594
6.1897559375 -3.1973187500 -6.4559541896
-6.1308593750 -1.9412618750 -6.4706834630
-5.5696166563 -1.7656606250 -4.0795821040
-4.4254121875 -2.2311490625 -4.8271844960
-3.9443228125 -1.5342668750 -6.4448666300
-4.4684928125 -1.6432987500 -4.0758648800
-3.9102318750 -2.0955781250 -5.6849747328
-3.3466496875 -2.0655721875 -4.8745111040
-3.3692381250 -1.5009956250 -4.0418399760
-6.2026787813 -1.3745621875 -5.7009380728
-5.6878680000 -1.2045643750 -4.8586578560
-4.9859575000 -0.6686903125 -6.4635105030
-5.5800293750 -0.6731515625 -3.9902392080
-5.0852606250 -1.2118878125 -5.6083209112
-4.5099878125 -1.0682678125 -4.8573885600
-4.4609946875 -0.5038793750 -4.0684563360
-3.9342178125 -0.9710071875 -5.6285117840
-3.3480471875 -0.9668818750 -4.8597587760
-2.8030490625 -0.2313937500 -6.4290408402
-3.3472275000 -0.3849843750 -4.0799706640
-2.8013693750 -0.8149440625 -5.6783407184
-6.6857436031 -0.3379531250 -4.8380382720
-6.1627277500 -0.1949915625 -5.7152811176
-5.6125817188 -0.1310021875 -4.8460167040
-5.0228703125 0.5264140625 -6.4485637784
-5.6415314688 0.4121012500 -3.9949278320
-5.0781387500 -0.0788781250 -5.7257087728
-4.5569787500 0.0682087500 -4.8470269600
-3.8602040625 0.6360237500 -6.4698968104
-4.4448293750 0.5956171875 -3.9768338880
-3.9686312500 0.1027162500 -5.6236249944
-3.3994187500 0.1927609375 -4.8396702240
-3.3075331250 0.7745509375 -4.0652571920
-2.8259734375 0.3315031250 -5.6087288992
-6.1786807500 1.4597156250 -6.4745189518
-6.6854932625 1.3879728125 -4.0800224720
-6.0922655313 0.9149593750 -5.6224347056
-5.5068971250 0.9558496875 -4.8407063840
-5.6280402188 1.5434178125 -4.1074159520
-4.9936975000 1.1145196875 -5.7002904728
-4.4414162500 1.1421740625 -4.8299432720
-3.9214253125 1.8110121875 -6.4590613744
-4.5343096875 1.7004081250 -4.0102889040
-3.9102587500 1.2284293750 -5.7142915848
-3.3960593750 1.3676284375 -4.8322098720
-2.8167553125 1.4037887500 -5.6252802600
-6.1008037188 -1.9162278125 -3.2260841600
-5.0094059375 -1.7411103125 -3.2242838320
-3.9385715625 -1.5514937500 -3.2226518800
-3.9277946875 -2.1142428125 -2.4136311040
-2.8099962500 -1.4568668750 -3.2152821920
-2.7949193750 -2.0325831250 -2.5684463600
-6.1878733438 -0.7512637500 -3.2564436480
-6.1857246875 -1.3345990625 -2.4873668400
-4.9974331250 -0.6357953125 -3.2264468160
-5.0781790625 -1.1762784375 -2.4014821280
-3.8848215625 -0.4720728125 -3.2427922400
-3.9381684375 -0.9966728125 -2.3925582000
-2.8028609375 -0.2756165625 -3.2251904720
-2.8070803125 -0.8380565625 -2.4474358240
-6.2288429375 0.3909506250 -3.2290760720
-6.1007701250 -0.1867140625 -2.4547148480
-5.0565715625 0.5440978125 -3.2662742160
-5.0532525000 -0.0345209375 -2.4894909680
-3.8520071875 0.6452015625 -3.2423518720
-3.9770834375 0.0964678125 -2.4221664720
-6.1532408750 1.4721587500 -3.1976415680
-6.0896062500 0.9162493750 -2.3681307280
-5.1080103125 1.6659543750 -3.2136113840
-4.9596468750 1.1017943750 -2.4415944720
-2.7536931250 1.9628693750 -3.2527523280
-3.9046015625 1.2375937500 -2.4763705920
-2.7687834375 0.8520450000 -3.2010608960
-2.8230709375 1.4218890625 -2.4011712800
-2.7604656250 -1.9202590625 -5.6429429024
-2.2574865625 -1.2589728125 -4.0547142640
-2.2423559375 -0.1822125000 -4.0186170400
-6.1553115938 2.0019725000 -5.6178043656
-5.5793131563 2.1289837500 -4.8817512720
-4.9668090625 2.2082918750 -5.6022127480
-3.3492834375 1.8852275000 -3.9592062160
-6.1728690313 2.0184871875 -2.3675219840
-3.9642775000 1.8144521875 -3.2485817840
-2.8252612500 0.2823353125 -2.3893979120
-2.2401925000 -0.7397881250 -4.8800675120
-2.2580375000 1.5142853125 -4.8137144160
-6.6879993563 -1.9651268750 -4.0048879200
-6.6819848656 0.8150381250 -4.8715839520
-4.9969225000 2.2190821875 -2.3737389440
-6.1532744688 -0.7784209375 -6.4519744286
-2.2366315625 0.9077703125 -4.0803462720
-2.2092593750 -1.8725425000 -4.7793657120
1.6268781250 -1.6436884375 -3.2934216080
-1.7095187500 1.0498046875 -3.2173933680
-1.7130796875 -1.7960428125 -5.6943286672
-1.1009209375 -1.2241159375 -4.0151070480
-0.6430650000 -1.8474009375 -5.6581317128
-0.5226515625 -1.2719400000 -3.1964370320
-1.1681621875 -1.7995231250 -4.8086631360
-0.0540590625 -1.9195065625 -4.9030832160
-0.0174284375 -1.3745487500 -4.0924693440
0.5750712500 -2.0008034375 -5.5755808456
1.1974021875 -2.0808506250 -4.8801322720
1.6509178125 -1.6428150000 -6.4229726987
1.0541718750 -1.5386743750 -4.0603224800
1.7528546875 -2.2238793750 -5.6622737624
-1.6606196875 -0.7015181250 -5.6690385920
-1.1110662500 -0.6946381250 -4.8708327360
-0.6035587500 -0.1517362500 -3.2329098640
-0.5166181250 -0.7126175000 -5.6192252000
0.0641775000 -0.7816862500 -4.8582952000
0.6194553125 -0.9063862500 -5.6781956560
-0.0544890625 -0.2481503125 -4.0359079600
1.1748675000 -0.9606603125 -4.8110981120
1.7258184375 -0.4709709375 -6.4606832238
1.1549531250 -0.3997790625 -3.9894361840
1.7102175000 -1.0526668750 -5.7014652192
-2.2195659375 0.3405331250 -4.8897815120
-1.7009993750 1.0105671875 -6.4683237123
-1.6351690625 0.4633250000 -5.6392891432
-1.1719918750 -0.1315531250 -4.0634309600
-0.5614456250 0.9610634375 -6.4509167682
-1.0630003125 0.4425506250 -4.8519098640
-0.5237534375 0.3751078125 -5.6967662336
0.0054287500 0.3456528125 -4.8037543280
0.0502428125 0.9058487500 -3.9998236880
0.5440843750 0.2454359375 -5.7059595632
1.0621403125 0.1231278125 -4.8662088720
1.6820659375 0.0725356250 -5.6142231376
1.1462187500 0.6980109375 -4.0834547520
-2.1859721875 2.0841831250 -4.0335636480
-1.7083362500 1.5627409375 -5.6319362928
-1.1539184375 0.9949931250 -4.0265177600
-0.5242506250 2.1249659375 -6.4540604777
-1.1213056250 1.5486450000 -4.8358752880
-0.6000515625 1.5439015625 -5.6984098424
-0.0475821875 1.4247915625 -4.8845748080
0.5523887500 1.8964343750 -6.4703665665
0.0129134375 2.0001315625 -4.0875993920
0.5580862500 1.3651290625 -5.6044625104
1.1600593750 1.2673040625 -4.8829946640
1.7197581250 1.1519834375 -5.6707495512
-1.6726059375 -1.2582203125 -3.2620648160
-0.5492040625 -0.7067587500 -2.4121804800
0.5238206250 -1.4263234375 -3.1987295360
0.5423106250 -1.9932381250 -2.4069090160
1.6548146875 -1.0867712500 -2.4650894000
-1.6959737500 -0.7208950000 -2.4738190480
-0.5209987500 0.4241815625 -2.4333570000
-0.5666190625 0.9553256250 -3.2932143760
0.5474840625 -0.3345265625 -3.3034723600
1.7411237500 -0.4986253125 -3.2230274880
-1.6930309375 1.5988878125 -2.3745549200
-1.6789081250 -0.0823450000 -3.1815940400
-0.5166181250 2.0721296875 -3.2128990240
-1.6700662500 0.4837231250 -2.4134886320
-0.6046068750 1.4817934375 -2.4327223520
0.6178428125 0.7825193750 -3.2166421520
1.6854925000 0.6562471875 -3.1723851680
1.6301165625 0.0608584375 -2.4365561440
-1.6142871875 2.1337271875 -3.2388289280
0.5429287500 1.9353762500 -3.1765686640
1.0623956250 1.8091981250 -4.0589754720
1.7456521875 1.2323396875 -2.4011583280
2.1888881250 0.5155834375 -4.0697256320
1.6334356250 1.7570471875 -3.2786304240
1.6800637500 1.7378718750 -6.4358232846
-1.6788946875 -1.8135921875 -2.3910946240
-0.6426081250 -1.8615237500 -2.4408691600
1.7411371875 -2.1523112500 -2.4069996800
0.6142818750 -0.8506609375 -2.4054842960
0.5079509375 0.1989959375 -2.4429285280
0.5369356250 1.3461150000 -2.4267644320
-1.0676631250 2.1386453125 -4.0591697520
0.5662025000 -0.3300787500 -6.4674669504
2.2366450000 -0.0176568750 -4.8662736320
2.2389562500 1.6496278125 -3.9915214560
2.2075528125 2.1954456250 -4.8413798880
-1.7246896875 -0.1083734375 -6.4282094514
0.5146025000 -1.4768215625 -6.4586747572
0.5861706250 0.8384865625 -6.4683486319
-0.5321653125 -1.2689971875 -6.4351580698
6.6859356250 0.2473978125 -4.0835583680
6.6789615625 1.9526971875 -4.8629061120
2.2481071875 -1.6668009375 -3.9615764320
6.6731700000 -1.4351518750 -4.8518062480
6.6698643750 -0.8810296875 -4.0049267760
2.8611662500 -1.8107300000 -3.2422353040
3.3612965625 -0.3253084375 -4.8366912640
3.9392434375 -1.9451453125 -6.4745068157
4.4828171875 -2.0378640625 -4.0702825680
5.0453512500 -2.0777062500 -6.4656821260
6.1711584375 -2.0369234375 -6.4154974519
5.5790215625 -2.1425153125 -4.0069731920
2.2495987500 -1.1558400000 -4.8726848720
2.8444365625 -0.6373271875 -3.1842880560
2.3076890625 -2.2140162500 -4.8169912720
2.8954050000 -1.2303106250 -5.4888063312
3.8881003125 -0.8432703125 -3.2173933680
3.8068706250 -1.4253828125 -5.5285612000
4.4237593750 -1.4665821875 -4.8853130720
4.4665578125 -0.9254137500 -4.0189408400
5.0111259375 -1.5249009375 -5.6424066896
5.5884143750 -1.5965496875 -4.8301634560
5.5419340625 -0.9985540625 -4.0956555360
6.1167903125 -1.4468693750 -5.6895830544
2.2675378125 -0.5896912500 -4.0378766640
2.8098484375 -0.1035493750 -5.6749136192
3.3423900000 -0.8619618750 -4.1372055520
3.3481815625 0.3049103125 -4.0224249280
3.9023575000 -0.2751193750 -5.7202028776
4.4234771875 -0.3761021875 -4.8659109760
4.5289346875 0.1665981250 -4.0407908640
6.1799868750 -0.3677843750 -5.6337016504
5.5960065625 -0.4215209375 -4.8549535840
5.6189040625 0.1530396875 -4.0755799360
6.1367584375 0.1897912500 -6.4758934749
2.2826818750 1.1225553125 -4.8346189440
2.8129659375 1.0241928125 -5.6949335256
3.3288584375 0.8117862500 -4.8260576720
3.3961131250 1.4540718750 -4.0938552080
3.9137793750 0.8303568750 -5.6191837536
4.4682912500 0.7359853125 -4.8242184880
5.0245365625 0.6879059375 -5.6639070096
4.4865393750 1.3264290625 -4.0633273440
5.0354881250 -0.4091853125 -5.6222145216
5.5851490625 0.7317928125 -4.8733454240
6.1900112500 1.2969875000 -6.4318604906
6.2090118750 1.2816015625 -3.2291926400
6.1757809375 0.7349640625 -5.6338363512
3.3986259375 -1.7789771875 -4.1551829280
4.9853259375 -2.0758518750 -3.2155541840
6.1479250000 -2.0439378125 -3.2649401600
2.8219287500 -0.0689746875 -2.3885948880
2.7319243750 -1.2368009375 -2.4652318720
3.9135106250 -1.9725040625 -3.2095833120
3.9201487500 -1.3986959375 -2.4112867920
5.0110050000 -0.9860840625 -3.2221467520
5.0796840625 -1.5141106250 -2.3859008720
6.0667625000 -0.9090468750 -3.2443076240
6.1943515625 -1.4925971875 -2.4581859840
2.8455384375 1.5514131250 -3.2863627680
2.7619571875 0.4578021875 -3.2719342400
3.9333443750 0.2464975000 -3.2929423840
3.9416756250 -0.2806825000 -2.4088129600
5.0753034375 0.1294703125 -3.2106583280
5.0193765625 -0.4163206250 -2.4021038240
6.1455734375 0.1705756250 -3.1969680640
6.2240350000 -0.3776071875 -2.3852532720
3.9419040625 1.3625221875 -3.2299827120
3.8950475000 0.7837018750 -2.4521503520
5.6409684375 1.2557746875 -4.0086828560
5.0199409375 1.8158093750 -2.4594034720
6.1647084375 0.7507531250 -2.3848517600
3.3834281250 2.0335371875 -4.8312643760
3.9307912500 1.8754584375 -5.6392619440
4.5244331250 1.9105571875 -4.8446178880
5.0338756250 1.8059328125 -5.7086755976
5.5827034375 1.8042128125 -4.8471305760
6.1394325000 1.8804706250 -5.6825125576
3.9246503125 1.9411946875 -2.4286554240
5.0532793750 1.2449978125 -3.2517809280
6.1306443750 1.8400237500 -2.4223607520
2.8353931250 0.9978284375 -2.4356754080
5.0278959375 0.7059659375 -2.4279171600
2.7750856250 2.0826781250 -2.4363877680
2.8126703125 1.5973290625 -6.4649054981
2.8128584375 2.1359712500 -5.6054662904
2.7829062500 -1.7191803125 -6.4659100552
2.7920034375 -0.7041518750 -6.4477882126
3.9256715625 -0.9042496875 -6.4257918310
2.8090018750 0.4373234375 -6.4621289261
3.9620603125 0.2946575000 -6.4694123538
4.9827056250 -0.9630253125 -6.4460163790
5.0527821875 1.2263868750 -6.4736240592
-5.0200350000 6.7111175000 -5.6735251648
-6.6669769250 6.4354203125 -4.8169394640
-5.5533008438 6.5505931250 -4.8424419520
-3.3449700000 6.4271428125 -4.0250671360
-6.1379463125 6.5323584375 -5.6465694624
-3.9564703125 2.9322506250 -3.2020452480
-6.0940769063 2.5589165625 -3.2447091360
-5.0315912500 2.7420831250 -6.4608332080
-5.5444307500 2.6818696875 -4.0771082720
-4.3855565625 2.2400446875 -4.8454209120
-4.4867140625 2.8346540625 -4.0963678960
-3.8584840625 2.3992656250 -5.6927886744
-3.3098309375 2.4460550000 -4.8139216480
-2.8056021875 3.1085775000 -6.4586975527
-2.7960615625 2.5152715625 -5.7170568368
-6.6753071000 2.5117375000 -4.0330196640
-6.1648145938 3.1432865625 -5.7126738800
-6.7033727969 3.6120268750 -3.9975700400
-6.1027158750 2.5486637500 -6.4448659824
-5.6391154063 3.2682418750 -4.8414576000
-5.5539095625 3.8215578125 -4.0148350560
-5.0588559375 3.3013787500 -5.6316655960
-4.4847521875 3.4095371875 -4.8809352960
-3.8649340625 4.0413012500 -6.4568717093
-4.3897087500 3.9640356250 -4.0703991360
-3.8760737500 3.4929706250 -5.5998451224
-3.2854553125 3.5473925000 -4.8639811280
-3.3203659375 4.1304456250 -4.0906690160
-2.7413171875 3.6880159375 -5.6867672896
-6.1258176250 5.4129071875 -5.6485834984
-6.6732549250 4.7044956250 -4.0203526080
-6.1242615625 4.2768875000 -5.6875599520
-5.5826349063 4.9393562500 -4.0126850240
-5.5826187813 4.3640431250 -4.8364322240
-4.5206840625 4.5440787500 -4.8138309840
-3.8874015625 5.6990721875 -5.6902928240
-4.4507821875 5.1249146875 -4.0365814640
-5.0484015625 4.4277637500 -5.7063014960
-3.3791550000 4.7016737500 -4.8876832880
-2.7516775000 5.3335050000 -6.4457307874
-3.2955334375 5.2387975000 -4.0695831600
-2.7672515625 4.8030596875 -5.5814519872
-6.6758311625 5.2536593750 -4.8404602960
-6.1439636250 5.9645434375 -6.4629429593
-5.5444267188 5.4688878125 -4.8880329920
-5.5642268750 5.9951003125 -4.0159877840
-4.9684753125 5.5497143750 -5.6793665168
-4.4337165625 5.6856750000 -4.8444883680
-5.0607506250 6.1267071875 -6.4414480791
-4.4738140625 6.2297728125 -4.0064810160
-3.3600871875 5.8547187500 -4.7945843120
-2.7430775000 6.4500537500 -3.2818943280
-2.8179378125 5.9123387500 -5.6464917504
-6.1342590625 3.1067365625 -2.4212598320
-5.0105884375 2.7676950000 -3.2069799600
-3.8336381250 2.3680771875 -2.4168691040
-3.4044712500 3.0095162500 -4.0161302560
-2.8255837500 3.1087387500 -3.2583864480
-6.1166008438 3.6729256250 -3.2284802800
-4.9630196875 3.8620987500 -3.2773740800
-5.0384578125 3.3242090625 -2.3805387440
-3.8616687500 4.0681896875 -3.2158391280
-3.9022365625 3.4988562500 -2.4044740400
-2.8083300000 4.2273837500 -3.1502631520
-2.7356465625 3.6265259375 -2.4053418240
-6.1291810313 4.8570784375 -3.1922923920
-6.1231959688 4.2480237500 -2.4792070800
-4.9884971875 4.9476337500 -3.2259934960
-5.0064631250 4.3765668750 -2.4041372880
-3.8623540625 5.1438346875 -3.2733589600
-3.9235618750 4.6154453125 -2.3844113920
-2.7731237500 5.3752687500 -3.2171861360
-2.7636503125 4.8248015625 -2.4111572720
-6.1025304375 6.5349518750 -2.3863541920
-6.1727467500 6.0033375000 -3.2597852640
-5.0203709375 6.1299187500 -3.1808557760
-5.0137596875 5.5241293750 -2.4646878880
-3.8785328125 6.2206621875 -3.2170436640
-3.9052062500 5.6745621875 -2.4030752240
-2.7887784375 5.9110621875 -2.3700605760
-2.2710718750 2.6550484375 -4.8199054720
-2.2733965625 4.2998521875 -4.0203008000
-6.7020880375 3.0616268750 -4.8430377440
-2.7739434375 2.5294346875 -2.4537693520
-6.1333936875 5.4430743750 -2.4534066960
-3.9650031250 4.5904515625 -5.6386635616
-6.1644316250 4.8597525000 -6.4664499205
-2.2510096875 5.9649600000 -4.8282336080
-6.6878019594 4.1622387500 -4.8582952000
-6.7123232066 5.8398837500 -4.0858638240
-4.9422856250 3.8545468750 -6.4656050227
-2.8160968750 4.2628587500 -6.4541420753
-2.1901378125 3.7337706250 -4.8417943520
-2.2130353125 5.3961640625 -4.0417363600
-1.5996000000 6.5995862500 -3.2232088160
-2.1705325000 6.5545034375 -4.0409333360
1.1569821875 2.3948581250 -4.8342303840
-2.2209096875 3.2087271875 -3.9719380320
-1.7253078125 2.6432234375 -5.6608179576
-1.1621690625 2.6895021875 -4.8682423360
-0.5190100000 4.3079415625 -6.4521740189
-1.0965134375 3.2565243750 -4.0730154400
-0.5673312500 2.6597650000 -5.6017995792
0.0384984375 2.5696262500 -4.8803654080
0.5681643750 3.0467381250 -6.4347214579
-0.0310271875 3.1161562500 -4.0595842160
0.5940450000 2.4632012500 -5.6734707664
1.6909481250 2.3248756250 -5.7028925296
1.7119509375 2.9163406250 -6.4664303630
1.1005581250 3.4737012500 -4.8468326800
-1.6843234375 4.3471925000 -6.4638306894
-1.6510387500 3.7748356250 -5.6839618864
-1.0953712500 3.8453556250 -4.8508737040
-1.1479790625 4.3637609375 -3.9974534720
-0.5436006250 3.7428678125 -5.6691719976
0.0574453125 4.2463709375 -3.9970649120
0.0164071875 3.7028778125 -4.8308499120
0.5683256250 3.6241609375 -5.6839903808
1.1723278125 4.0562034375 -4.0907467280
1.6983656250 3.4411153125 -5.6087146520
-2.1544343750 4.8402950000 -4.8656907920
-1.6145693750 4.9148731250 -5.6809583176
-1.0618043750 4.9150478125 -4.8315104640
-1.1158768750 6.0195028125 -4.8552385280
-0.5326356250 4.9032496875 -5.7110574704
-0.0063290625 4.7850265625 -4.8419756800
0.0287831250 5.3711165625 -4.0717331920
0.5849209375 4.7202981250 -5.6093583664
1.1640637500 4.6565103125 -4.8303447840
1.1331575000 5.2169750000 -4.0475906640
1.6957990625 4.4985525000 -5.6542707216
-1.6932728125 6.0634837500 -5.6293122176
-1.0741131250 6.6119756250 -4.0779372000
-0.5404428125 5.9966590625 -5.6146816384
0.0595953125 5.9461206250 -4.8542023680
0.5732975000 6.3872334375 -6.4137530766
-0.0007525000 6.4999740625 -4.0615270160
0.5792503125 5.7827340625 -5.6874459744
1.1537437500 5.7873834375 -4.8493971760
1.1662271875 6.3239696875 -3.9921431520
1.6905853125 5.6765240625 -5.7101404688
-1.6220406250 3.2336537500 -3.2243226880
-1.7374956250 2.6739953125 -2.3975965280
-0.5504940625 3.1767190625 -3.1886399280
-0.5711743750 2.6156496875 -2.3893720080
1.1395940625 2.9380825000 -3.9958603760
0.6491118750 2.5178246875 -2.4150558240
1.7362996875 2.8712443750 -3.2600313520
-1.7013756250 4.3788915625 -3.1948439360
-1.6592356250 3.7970881250 -2.4370094640
-0.5454818750 4.3066784375 -3.2925538240
-0.5107056250 3.7799687500 -2.4378642960
0.6425812500 4.1612712500 -3.2388677840
0.5502387500 3.6012365625 -2.4390688320
1.7077046875 3.9781046875 -3.1996750320
1.6376818750 3.4076828125 -2.4168561520
-1.0855484375 5.4908043750 -4.0185393280
-1.6566287500 5.5023471875 -3.2325731120
-0.5134334375 5.4492287500 -3.2193232160
-0.5623190625 4.8606931250 -2.4654132000
0.5814540625 5.2770003125 -3.2214343920
0.5129631250 4.7188200000 -2.4200941520
1.6909884375 5.0722396875 -3.2589563360
1.6914318750 4.5510528125 -2.3883488000
-1.7181456250 6.0390409375 -2.3998113200
-0.5279996875 6.5596500000 -3.1991310480
-0.5572128125 6.0011471875 -2.4088518160
0.5628431250 6.3734062500 -3.2524544320
0.6289690625 5.8368334375 -2.4041502400
1.7306156250 6.2293428125 -3.1983927840
1.7098278125 5.6259184375 -2.4472804000
0.5401203125 3.0445478125 -3.2765840080
1.7202015625 2.2995593750 -2.4485756000
-1.6315006250 4.9549571875 -2.4047719360
-0.5465568750 6.5417781250 -6.4728857175
2.2255590625 5.5549146875 -4.8887842080
-1.6803325000 5.5066471875 -6.4320166918
1.7159821875 5.0762709375 -6.4294445541
1.6945762500 6.2808487500 -6.4423982378
2.8628996875 6.5975437500 -5.6666075016
2.3163965625 6.6888918750 -4.8322357760
2.2734234375 3.3631643750 -4.8472989520
3.4162156250 6.5468440625 -4.7943123200