ITEM: TIMESTEP
182000
# source: voids-relax.182000.cfg
ITEM: NUMBER OF ATOMS
2298
ITEM: BOX BOUNDS pp pp pp
-6.7187500000 6.7187500000
-6.7187500000 6.7187500000
-6.4760000000 6.4760000000
ITEM: ATOMS x y z
-6.1799653750 -5.9967813438 -6.4290628586
-6.6541918156 -5.5343365000 -4.9166051040
-5.6032923750 -6.6010037719 -4.8696670560
-5.0233675000 -6.4720993125 -5.6916450128
-5.5791787813 -6.0271930938 -4.0447282720
-4.0051946875 -5.2029731250 -5.6972117824
-4.4974103125 -6.3706354375 -4.8562228800
-3.9313556250 -6.3696155313 -5.6824983104
-4.4761387500 -5.8161638750 -4.0191480720
-3.9076921875 -5.7768215625 -6.4484014898
-3.3780665625 -4.6244215625 -4.0316985600
-3.3904425000 -6.2262857813 -4.8418332080
-5.6813414063 -5.4817528750 -4.8915559360
-5.1726715625 -5.3647606250 -5.6631816976
-5.6389205625 -4.2537615625 -4.8324559600
-4.5382737500 -5.3073153125 -4.8908047200
-4.4802103125 -4.7550340625 -4.0382263680
-3.9451021875 -3.4986009375 -3.2239211760
-3.3464212500 -5.6826838125 -4.0387703520
-2.7963168750 -5.1848190625 -5.6403861776
-6.1346863750 -3.9137525000 -6.4035650334
-4.5106731250 -4.1878909375 -4.8327927120
-5.1013184375 -3.7445071875 -6.4093907134
-5.5913115000 -3.7341737500 -4.0056520880
-3.9258596875 -4.0111206250 -5.6461265040
-3.4176534375 -5.1520718750 -4.9161647360
-4.4909871875 -3.5982803125 -4.0726398320
-3.3618878125 -4.0793159375 -4.8604452320
-3.9444168750 -4.5881134375 -3.2259934960
-2.7906865625 -4.0404681250 -5.6722468024
-3.9577737500 -4.0653006250 -2.4016505040
-2.8447053125 -4.6164128125 -6.4402193229
-6.2465186250 -3.3915443750 -5.6003243464
-5.7250307500 -3.1934218750 -4.8802488400
-5.5892730313 -2.6668600000 -3.9988522880
-6.1531683125 -4.6517265625 -5.6424701544
-5.0535078125 -2.5550465625 -3.2239729840
-5.0708421875 -3.1431521875 -5.6196642728
-4.5502196875 -3.0171487500 -4.8304613520
-4.4665846875 -2.4595462500 -4.0148350560
-3.9271900000 -2.9778843750 -5.6091355920
-3.3544300000 -2.9135725000 -4.8248013280
-3.8956925000 -2.4440931250 -3.2471959200
-2.8225200000 -2.9182084375 -5.6865898472
-6.1924971875 -6.0455446875 -3.3073061520
-5.0593665625 -5.8752472188 -3.2209810720
-5.0549725000 -6.4571097813 -2.4684439680
-3.9086328125 -5.7738008125 -3.2135336720
-3.9312212500 -6.3318642188 -2.4039559600
-2.8171450000 -4.6363540625 -3.2259546400
-2.7817506250 -5.7487345000 -3.2240895520
-6.1579574375 -4.9818993750 -3.3026175280
-6.1555521250 -5.5305484688 -2.3960293360
-5.5896371875 -4.8846118750 -4.1140344240
-5.0247381250 -5.3137653125 -2.4264406320
-5.0813906250 -4.7689150000 -3.2541381920
-2.8073087500 -4.0551418750 -2.4454282640
-6.1951484063 -3.8738028125 -3.2162665440
-6.1655308125 -4.4576353125 -2.4556732960
-5.0463456250 -3.7153612500 -3.2133652960
-5.0302878125 -4.2641353125 -2.3575748480
-3.3913025000 -3.4943815625 -4.0817191840
-6.1993530000 -2.6686337500 -3.2435305040
-6.1332163125 -3.2707412500 -2.5084397440
-5.0264850000 -3.1393896875 -2.4440683040
-3.9496171875 -2.9501359375 -2.3684415760
-2.7801784375 -2.3522612500 -3.2388548320
-2.8495025000 -3.5088671875 -3.2594355600
-2.2693787500 -6.3627476250 -4.8886546880
-2.7691865625 -5.1931637500 -2.4087093440
-6.1604998125 -6.4252803750 -5.6613023624
-6.6876992969 -2.4094243750 -4.8545261680
-3.3497000000 -2.3341743750 -4.0562166960
-2.8390615625 -6.3098764375 -5.6713323912
-6.1502685000 -6.5927450844 -2.4477337200
-2.8063278125 -6.3255566563 -2.4303262320
-3.9132284375 -5.1793634375 -2.4667343040
-2.8196175000 -2.9342528125 -2.4657888080
-5.0355956250 -4.2701553125 -5.6256714104
-2.2770246875 -4.6396328125 -4.0874698720
-2.2441968750 -3.5210818750 -3.9911069920
-2.2515337500 -2.9917518750 -4.8791090640
-2.2414959375 -5.8018327813 -4.0957073440
-2.7874481250 -5.7357283438 -6.4565203215
-6.1631832813 -5.0392237500 -6.4138499575
-5.0006043750 -2.6144000000 -6.4205532651
-3.9283725000 -2.4322950000 -6.4646824517
-3.9314228125 -4.6043728125 -6.4202244138
-2.2395743750 -4.0586087500 -4.8474932320
-2.2322240625 -2.4459071875 -4.0389775840
-1.7344721875 -4.7530990625 -3.2882926160
-1.1165487500 -6.4944835000 -4.8846654720
-1.6838934375 -6.3927764063 -5.6516401704
-2.2340246875 -5.2164778125 -4.8506146640
-1.1183090625 -5.3698265625 -4.8151779920
-1.1194646875 -5.9502311563 -4.0487045360
-0.5814003125 -6.0018351875 -6.4597299566
0.0074846875 -5.5703086875 -4.8164731920
-0.0249131250 -6.1266722500 -4.0197309120
1.1290321875 -6.2822328125 -4.0475647600
-1.6889996875 -5.8412651250 -6.4585842227
-1.6590743750 -5.2812196875 -5.6563171376
-0.5694140625 -4.3454456250 -5.6682575864
-1.1055434375 -4.7991359375 -4.0135398560
-0.5511793750 -5.4512685625 -5.6411749544
-0.0327740625 -4.9923940625 -4.0234222320
0.5502521875 -5.6168924688 -5.6730291032
1.1008806250 -5.7190577813 -4.8460814640
1.1185375000 -5.1530662500 -4.0665135360
-1.6890400000 -3.6082106250 -6.4725848555
-1.6863390625 -4.1798418750 -5.6857790520
-1.1438671875 -4.2606550000 -4.8592795520
-1.6558225000 -3.6317396875 -3.2315240000
-0.0216343750 -4.4512525000 -4.8354996800
1.1262640625 -4.0286296875 -4.0650758640
0.0198740625 -3.8826043750 -4.0536910560
0.5152609375 -4.5327912500 -5.6848050616
1.6647450000 -4.1308621875 -6.4374512214
1.1445659375 -3.4774906250 -4.8984464000
1.0804825000 -4.5843375000 -4.8609503600
-1.6961350000 -3.0219593750 -5.7061085112
-1.1703390625 -3.1719890625 -4.8361084240
-0.5170884375 -2.6801900000 -6.4611662039
-1.1045356250 -2.5891643750 -4.0745437760
-0.6109762500 -3.2351990625 -5.6645869896
0.5245328125 -2.8543400000 -6.4302706326
-0.0357571875 -3.3196403125 -4.8663383920
0.5396500000 -3.4197093750 -5.6261053024
1.0406134375 -2.9534550000 -4.0242511600
1.6527856250 -2.9791878125 -3.2786951840
1.7257512500 -3.5515715625 -5.6677304400
-1.7125825000 -5.8150875313 -3.2508613360
-0.5749503125 -5.9338199375 -3.1518044400
-0.5330387500 -6.4531309375 -2.4174648960
0.5852568750 -6.1977042188 -3.2617410160
1.7024640625 -6.3651583125 -3.2302935600
-1.5498543750 -5.2827650000 -2.4024146720
-0.5566350000 -5.0081025000 -3.1149300960
-0.6316028125 -4.4159521875 -2.4611390400
0.5786456250 -5.0732206250 -3.2579719840
0.4427253125 -5.6251793750 -2.4452987440
1.6618156250 -5.2536325000 -3.2194786400
1.6166656250 -5.8038806563 -2.4096030320
-1.7543193750 -3.0443328125 -2.4540024880
-1.7224053125 -4.1828921875 -2.4598567920
-1.0947396875 -3.7236387500 -4.0168426160
-0.5191175000 -3.8250246875 -3.2240766000
0.5565946875 -4.0002765625 -3.2157355120
0.5086631250 -4.5309503125 -2.3852662240
1.6583353125 -4.1218321875 -3.2171213760
1.6727403125 -4.6927512500 -2.4259096000
-1.6494531250 -2.4745156250 -3.2393081520
-0.0349106250 -2.7520806250 -4.0622005200
-0.6039350000 -3.2882503125 -2.3788031760
0.4934653125 -2.8472046875 -3.2051019200
0.5839265625 -3.4238346875 -2.4267644320
1.6549490625 -5.8374206563 -5.6784922568
2.2247796875 -5.8682005938 -4.8656389840
2.2341187500 -4.7666978125 -4.9148824880
2.2111003125 -4.2424068750 -4.0592086080
0.6284718750 -2.2716631250 -5.6674118208
1.7005290625 -2.4448859375 -5.7056759144
-0.5952409375 -2.7182181250 -3.1915282240
0.6128843750 -2.2643531250 -2.4702702000
1.6965784375 -3.5382818750 -2.4686641520
2.2308534375 -3.1005553125 -4.0123612240
2.2294962500 -2.5353740625 -4.8114737200
-0.5244387500 -6.5660220625 -5.6488762136
-1.6631593750 -6.3739948125 -2.4502593600
1.6784915625 -2.4423865625 -2.4386673200
1.6445887500 -4.6957209375 -5.6541515632
0.5894628125 -3.9578543750 -6.4686249110
2.2236106250 -5.3107687500 -4.0566829680
1.1649103125 -2.3937159375 -4.8124839760
0.0270362500 -6.6774909625 -4.8491381360
1.7305215625 -5.2675940625 -6.4480995787
6.6986340625 -6.1519105625 -4.1178811680
6.2726250000 -5.7359285625 -5.6337353256
6.7043584375 -4.9978093750 -4.0860969600
6.1409106250 -4.6196915625 -5.7048599384
6.7170703125 -3.8985009375 -4.1051752560
6.6928962500 -4.3389284375 -4.8854944000
6.7123671875 -2.9611681250 -4.1626303280
2.2427590625 -6.4326347188 -4.0606203760
3.9688596875 -6.5460042188 -6.4496837378
3.3798134375 -6.6021358813 -4.0467746880
4.5019656250 -6.5429404688 -4.0203267040
5.0605221875 -6.4843905938 -6.4401865543
5.6040153125 -6.2948506250 -4.0837396960
3.3963012500 -4.9149000000 -4.8563912560
2.8005900000 -6.0031614688 -5.6491624528
3.3183100000 -5.4805179688 -4.0685210960
3.9356421875 -5.9688689688 -5.6737168544
4.4958246875 -5.9891891563 -4.8615979600
5.0691356250 -4.7374040625 -5.6966548464
4.4797668750 -5.4417843750 -4.0443656160
5.0613821875 -5.8789653750 -5.6996208544
5.6059503125 -5.7564637500 -4.9300492800
5.6505225000 -5.2392678125 -4.0398842240
2.7801515625 -4.2852993750 -3.2491516720
3.3363834375 -4.3497456250 -4.0685340480
3.3754731250 -6.0481555938 -4.8597069680
3.3342871875 -3.7661550000 -4.8279745680
3.9872959375 -4.8893687500 -5.6539715304
4.5159540625 -4.8632462500 -4.8152298000
4.4444531250 -4.2654790625 -4.0607887520
5.5994465625 -4.6869193750 -4.8388801520
5.0597965625 -3.0839465625 -6.4035248822
5.5487334375 -4.1244793750 -4.0295744320
6.1793284375 -5.1853834375 -6.4657734505
2.2615178125 -3.6466956250 -4.8259670080
2.7724250000 -4.3186512500 -6.4755169590
3.8784253125 -3.7767706250 -5.6359591840
3.3146550000 -2.6496196875 -4.8728532480
4.5143550000 -3.1770281250 -4.0766549520
4.4610484375 -2.6154615625 -4.8713378640
5.0436446875 -2.4794606250 -5.6245795568
5.7149821875 -3.5486018750 -4.8400328800
6.2636890625 -3.4787537500 -5.5824894424
5.5660543750 -2.9970059375 -4.0432776480
6.1423618750 -4.0330506250 -6.4745450759
2.8017859375 -6.5235515000 -3.2471959200
3.9221509375 -6.5219282500 -3.2246723920
5.0804096875 -6.4702691250 -3.2263561520
6.1800809375 -6.2999824063 -3.2623497600
2.7951881250 -5.9665281563 -2.4126856080
3.8883959375 -5.4079447188 -3.2744210240
3.9284800000 -5.9567201250 -2.4369706080
5.0433893750 -5.3030018750 -3.2649013040
5.0168100000 -5.8779535313 -2.4812275920
6.1863293750 -5.1454875000 -3.2174840320
6.1376721875 -5.7311515313 -2.4670840080
2.8129659375 -4.8506821875 -2.4479150480
2.7695628125 -5.4208635313 -3.2225612160
3.8960015625 -4.3230050000 -3.2528559440
3.9080550000 -4.8718596875 -2.4162992160
5.0131550000 -4.2155721875 -3.2317182800
5.0023243750 -4.7643731250 -2.4189284720
6.1370406250 -4.0164284375 -3.2471052560
6.1357371875 -4.5710343750 -2.4598697440
3.4287662500 -3.1887187500 -4.0544811280
2.8469493750 -3.2112131250 -3.2895748640
6.1772321875 -2.9199015625 -3.2628030800
3.9097481250 -3.7796193750 -2.4128669360
3.9675159375 -3.2122746875 -3.2093890320
5.0439940625 -3.6556584375 -2.4170374800
5.0500946875 -3.0824281250 -3.2074850880
6.1567803125 -3.4477265625 -2.4162862640
2.7640803125 -2.6407240625 -5.6959593240
4.5072734375 -3.7344290625 -4.9130433040
3.8950878125 -2.6483028125 -5.6614577864
5.6298690625 -2.4502475000 -4.8880718480
6.2098718750 -2.3589128125 -5.6828156344
2.7836721875 -3.7366731250 -2.4220758080
3.8865953125 -2.6485850000 -2.4133591120
5.0617718750 -2.5251481250 -2.4071810080
6.1508140625 -2.3494393750 -2.4384859920
2.7595653125 -2.6608668750 -2.4614757920
2.7982384375 -5.4177648438 -6.4235955604
2.8499459375 -4.8509778125 -5.6315062864
2.7963303125 -3.7294034375 -5.7047459608
3.9005434375 -4.3215806250 -6.4613803005
5.1111681250 -3.6370609375 -5.6048782696
4.0128003125 -3.2066578125 -6.4402331815
6.1048712500 -2.9501225000 -6.4609581948
-3.9329681250 -1.8653400000 -2.4497412800
-2.2546915625 -1.8763721875 -4.8271067840
-6.7061851044 -1.7832637500 -4.0613586400
-6.1234593438 -2.1987781250 -5.7072897336
-5.5794367813 -2.0853253125 -4.8285833120
-5.5967308438 -1.5394940625 -4.0743624480
-5.0622959375 -1.9897175000 -5.6744538232
-4.4752653125 -1.9149512500 -4.8514306400
-4.4727256250 -1.3668625000 -4.0271653600
-3.9322693750 -1.8714406250 -5.6667629256
-3.3592271875 -1.7737096875 -4.8732806640
-3.3317878125 -1.2400931250 -3.9984378240
-6.7045164625 -1.2629503125 -4.8882272720
-6.1296526875 -1.0660640625 -5.6340267456
-5.5588129063 -0.9276040625 -4.8732288560
-5.0716753125 -0.3442687500 -6.4481750889
-5.5880770938 -0.4307256250 -4.0511783680
-4.9808781250 -0.9143009375 -5.6729164208
-4.4420746875 -0.8121893750 -4.8432708800
-4.4689496875 -0.2456912500 -4.0270746960
-3.9075443750 -0.6863203125 -5.7102570368
-3.3721943750 -0.7138537500 -4.8477263680
-3.3454537500 -0.1282609375 -4.0563850720
-2.8126703125 -0.6804750000 -5.6436371296
-6.6003077094 0.5555196875 -3.9549968160
-6.1984056563 0.0514387500 -5.6016674688
-5.5669855938 0.1727256250 -4.8701333280
-4.9864546875 0.8191231250 -6.4248324764
-5.6578768438 0.6693487500 -3.9556962240
-5.0319809375 0.2297812500 -5.6777798968
-4.4872246875 0.2974659375 -4.8474414240
-4.4958381250 0.8511715625 -4.0227098720
-3.9029218750 0.4071428125 -5.6361508736
-3.3432634375 0.4348778125 -4.8311348560
-3.3918668750 1.0087665625 -4.0513467440
-2.7814281250 0.4256596875 -5.6403589784
-6.7003543313 1.6644359375 -4.0131383440
-6.1224703438 1.1461918750 -5.6653084160
-5.5788011875 1.2528050000 -4.8044278320
-5.5715543438 1.8739937500 -4.0720310880
-5.0611806250 1.3942346875 -5.6559091496
-4.4835696875 1.3983734375 -4.8493453680
-3.8725128125 2.0654915625 -6.4671621510
-4.4580518750 1.9804590625 -4.0824444960
-3.9236425000 1.5318212500 -5.6205333520
-3.3206212500 1.5664496875 -4.8791867760
-2.7563940625 1.5369678125 -5.6894626008
-6.1559243438 -1.5438075000 -3.2576870400
-6.1759032188 -2.1253556250 -2.4318027600
-5.0639084375 -1.4304487500 -3.2225094080
-5.0153990625 -2.0136900000 -2.4163898800
-3.9218284375 -1.2928756250 -3.2257862640
-2.7452006250 -1.2404425000 -3.2369249840
-6.1664902500 -0.3712512500 -3.2569099200
-6.1466054375 -1.0137384375 -2.4596366080
-5.0254503125 -0.3211428125 -3.2327155840
-5.0299921875 -0.8737600000 -2.4129835040
-3.9052062500 -0.1623921875 -3.2167069120
-3.9027875000 -0.7416559375 -2.4172965200
-2.8212300000 -0.1256271875 -3.2054645760
-2.7744137500 -0.6934287500 -2.4069090160
-6.1132253438 0.1151325000 -2.5114446080
-5.1171343750 0.8104828125 -3.2447091360
-5.0129131250 0.2421571875 -2.4292382640
-3.9504906250 0.9454759375 -3.2196211120
-3.9221643750 0.3958150000 -2.4044092800
-6.1071126250 1.6167731250 -3.2391397760
-6.1464764375 1.0478025000 -2.5579293360
-4.9862800000 1.8995384375 -3.2522212960
-4.9902575000 1.3471362500 -2.3638306640
-2.7460471875 2.1269143750 -3.2575186640
-3.8721231250 1.5292950000 -2.4443014400
-2.8301793750 0.9853853125 -3.2416006560
-2.7807428125 1.5747809375 -2.4578492320
-2.7827853125 -1.8124768750 -5.6741636984
-2.2525550000 -0.1636150000 -4.0531470720
-2.2417781250 1.4946934375 -4.8000500560
-6.6628540313 2.1593256250 -4.8882272720
-3.3368537500 2.0934550000 -4.0120633280
-3.9184421875 2.0938984375 -3.2395412880
-2.8573500000 -1.8010146875 -2.4192263680
-2.7377428125 0.4487453125 -2.4227234080
-2.2427456250 0.9259378125 -3.9913660320
-6.6825527344 -0.6622940625 -4.1270900400
-6.6917364594 1.0863546875 -4.8420533920
-6.2016158750 -1.6231021875 -6.4625911830
-3.8707256250 -1.2979684375 -6.4363260812
-2.7464234375 -1.2374190625 -6.4647807056
-6.1216654375 -0.4973353125 -6.4359055298
-2.7532900000 -0.1297390625 -6.4690297776
-3.9058915625 0.9759387500 -6.4501355036
-6.1718464375 1.7152028125 -6.4643928191
-2.7654375000 2.1062475000 -6.4613058265
0.0546100000 -2.2018150000 -4.8977469920
-2.2228178125 -0.7112737500 -4.8673616000
1.7162643750 -1.8795300000 -3.2740972240
-1.6290281250 0.8838246875 -3.2765840080
-2.2134384375 -1.2832543750 -4.0882988000
-1.7029612500 -1.9224762500 -5.6558677032
-1.1334665625 -1.4536284375 -4.0675756000
-0.5531412500 -2.1300184375 -5.6218363232
-0.6016640625 -1.5554040625 -3.2107878480
-1.1241946875 -2.0298284375 -4.8688899360
-0.0491678125 -1.6872931250 -4.0039942320
1.1351865625 -1.8231596875 -4.0321130240
-1.7066968750 -0.2825234375 -6.4507354402
-1.6500040625 -0.8285025000 -5.6144757016
-1.0518203125 -0.9018712500 -4.8793681040
-0.5233771875 -0.4098168750 -3.2912456720
-0.4903343750 -0.9892821875 -5.6880676704
0.0168103125 -1.1075859375 -4.8012027840
0.5520796875 -1.1435850000 -5.7178909456
0.0568540625 -0.5318831250 -4.0213758160
1.0644246875 -1.2490828125 -4.8185455120
1.7452759375 -0.7688937500 -6.4280932719
1.1974828125 -0.6642693750 -4.0719015680
1.6105784375 -1.3391946875 -5.6509368768
-2.2006459375 0.4082446875 -4.8590075600
-1.6442528125 0.3095059375 -5.6871377168
-1.1393656250 -0.3685771875 -4.0008987040
-1.1156887500 0.1963084375 -4.8072772720
-0.5834965625 0.1433915625 -5.7057613976
-0.0544084375 0.0320215625 -4.8239983040
0.6015565625 0.5261318750 -6.4194527337
0.0701437500 0.6208393750 -4.0827294400
0.4974965625 -0.0437793750 -5.6266557624
1.1139821875 -0.1176721875 -4.9139758480
1.7160359375 -0.2110359375 -5.6165791064
1.1125712500 0.4195321875 -4.0754892720
-2.1743084375 2.0756771875 -4.0284217040
-1.6979490625 1.4264040625 -5.6996558248
-1.0508796875 0.7712453125 -4.0254297920
-0.5358875000 1.8113750000 -6.4212210702
-1.1761843750 1.3211078125 -4.8379476080
-0.5950528125 1.2489215625 -5.6049870664
0.0251818750 1.1716290625 -4.9133800560
-0.0320484375 1.7166540625 -4.0741034080
0.6354056250 1.0840837500 -5.5996003296
1.2233634375 1.0029481250 -4.8414705520
1.7597212500 0.9102562500 -5.6883228248
1.1521984375 2.1378121875 -4.8026145520
1.6369159375 0.3380068750 -6.4498830691
-1.6884084375 -1.4058178125 -3.2130026400
-0.5262259375 -0.9631059375 -2.4739874240
0.5664578125 -1.6908406250 -3.2802753280
1.6522212500 -1.3476468750 -2.4188507600
-1.6254806250 -0.8224690625 -2.4304428000
-0.5901884375 0.1292687500 -2.4304428000
-0.4787781250 0.6881746875 -3.2361867200
0.6386575000 -0.6028196875 -3.2505375360
1.7192609375 -0.7683831250 -3.1842492000
-1.7123003125 1.4086128125 -2.4246403040
-1.7100831250 -0.2601500000 -3.2316535200
-0.5498893750 1.8280375000 -3.1744704400
-1.6407859375 0.3128518750 -2.4711768400
-0.5559900000 1.2479271875 -2.4151335360
0.5903362500 0.5297600000 -3.1883938400
1.6821465625 0.3653925000 -3.2466130800
1.6937162500 -0.1827231250 -2.4191357040
-1.6126075000 1.9770325000 -3.2189735120
0.5304587500 1.6549490625 -3.2568840160
1.1000071875 1.5605371875 -4.0390293920
1.7297287500 0.9069506250 -2.4091238080
2.2052415625 -1.4238509375 -4.9058031360
2.2331781250 -0.8624859375 -4.0990619120
1.6766371875 1.4457809375 -3.2798997200
1.6759787500 2.0151143750 -5.6872478088
0.6171978125 2.1887806250 -2.4022203920
-1.6789618750 -1.9437075000 -2.3697238240
-0.4894878125 -2.1391021875 -2.4359214960
0.5267365625 -1.1549128125 -2.4294843520
0.5333209375 -0.0450290625 -2.4276581200
0.6202615625 1.1137806250 -2.4149522080
-1.0652175000 1.9116053125 -4.0785329920
1.7110909375 1.9877421875 -2.4515157040
-0.5996350000 -1.5799409375 -6.4425824153
2.2371153125 0.2626628125 -4.0491837600
0.6344246875 2.1891568750 -5.7060243232
-0.4660125000 0.7206531250 -6.4701508638
-1.5963750000 2.0128031250 -6.4647399327
0.5064996875 1.6174046875 -6.4660198234
2.2426381250 1.9393268750 -4.8587226160
6.7075162500 -0.0330965625 -4.7939496640
2.3126878125 -0.2793925000 -4.8797307600
2.8308243750 -2.0695228125 -3.1936912080
3.4232703125 -0.4244234375 -4.8020835200
4.4906512500 -2.0534918750 -4.0677439760
6.1713465625 -1.7870128125 -6.4398749292
5.6172378125 -1.9017287500 -4.0831439040
2.7865612500 -0.9432050000 -6.4688209395
2.7800037500 -0.9105384375 -3.2344770560
2.8053603125 -1.4760287500 -5.6175841816
3.8836928125 -0.9584968750 -3.2586325360
3.3937481250 -1.5627275000 -4.8880200400
3.9696793750 -1.5205875000 -5.6854656136
4.4754400000 -1.4681409375 -4.8085206640
5.0265118750 -1.4132621875 -5.7059064600
5.5573737500 -1.3137843750 -4.8305390640
6.2055584375 -0.7127384375 -3.2395801440
6.1286287500 -1.2291415625 -5.6112156832
2.8843459375 -0.3716409375 -5.6614370632
3.3294900000 -1.0101640625 -4.0650111040
3.3861425000 0.1780334375 -4.0663581120
3.9609584375 -0.4072503125 -5.6521608408
4.5380050000 -0.3868656250 -4.8533345840
5.0307715625 0.3002743750 -6.4395920575
4.5096250000 0.1821587500 -4.0330714720
6.1769096875 -0.1664906250 -5.6637049584
5.6147384375 -0.1677940625 -4.8293345280
5.6697381250 -0.7378128125 -4.0411405680
6.1527356250 0.4103275000 -6.4655728758
2.2931900000 0.8498278125 -4.8098806240
2.8202893750 0.7219968750 -5.6936590488
3.3739009375 0.7462650000 -4.8556659440
3.9498053125 1.2232559375 -6.4513852421
3.4190240625 1.2902553125 -4.0079834480
3.9365828125 0.6754762500 -5.6329258256
4.5326165625 0.7349103125 -4.8516378720
5.0916837500 0.8653750000 -5.6259913248
4.5136696875 1.3104653125 -4.1098768320
5.0808396875 -0.2839209375 -5.6928145784
5.7033856250 0.8963350000 -4.8455892880
6.1560412500 1.5887156250 -6.4322569514
6.1572237500 1.5728862500 -3.2393470080
6.2200171875 0.9886506250 -5.7024301432
2.3000700000 -1.9506546875 -4.0444821840
3.3704609375 -2.0986553125 -4.0237460320
5.0443165625 -1.9668065625 -3.2316794240
6.1537300000 -1.8277956250 -3.2751333840
2.8589893750 -0.3855353125 -2.3708117920
2.7935621875 -1.4850990625 -2.4330850080
3.9629471875 -2.0946778125 -3.2290890240
3.9029890625 -1.5155484375 -2.4447936160
4.4925056250 -0.9019384375 -3.9807065360
5.0299921875 -1.4119453125 -2.4078674640
5.0876121875 -0.8870765625 -3.2514830320
6.1908578125 -1.2495800000 -2.4382917120
2.8551865625 1.2690643750 -3.2074721360
2.8112996875 0.1359068750 -3.2665203040
3.9196650000 0.1771734375 -3.2375337280
3.9944850000 -0.4017140625 -2.4567871680
5.0769562500 0.2999384375 -3.2376243920
5.0601459375 -0.2853050000 -2.4996323840
5.6464912500 0.3767740625 -3.9775073920
6.2946625000 0.4064440625 -3.2669477200
2.2970062500 1.4075109375 -3.9931663600
4.0128675000 1.2690240625 -3.2191807440
3.9690478125 0.7151168750 -2.4063779840
5.6160284375 1.4711643750 -4.0651794800
5.0671200000 1.9504531250 -2.3594010800
6.1965956250 0.9832756250 -2.4776657920
2.7906059375 1.8886809375 -5.6675814920
3.3690500000 1.8143446875 -4.8970346320
3.9479778125 1.8100446875 -5.7015882632
4.4611693750 1.9143868750 -4.8518969120
5.0572165625 1.9112156250 -5.6356237272
5.6233787500 2.0393959375 -4.8439184800
3.9078937500 1.8474412500 -2.4335253760
5.0597965625 1.4177368750 -3.2396578560
6.2438150000 2.1220634375 -2.4215447760
6.1400371875 -0.1366190625 -2.4017929760
2.8142559375 0.6936437500 -2.4580823680
5.1344015625 0.8651600000 -2.4195890240
2.8238637500 1.8729993750 -2.4816032000
2.8303003125 1.3134887500 -6.4590863718
6.1788178125 2.1476484375 -5.6374240552
2.8289700000 -2.0275843750 -6.4335077260
-6.6853027188 6.6519925000 -4.8042335520
-3.3526696875 6.6186406250 -4.0728600160
-3.8745418750 3.1707796875 -3.2666498240
-6.1756210313 2.8541384375 -3.2254365600
-6.1067726563 2.2894543750 -5.6829814200
-5.5690818438 2.4215853125 -4.8751587040
-5.0666362500 3.0036709375 -6.4757924818
-5.6024417813 2.9491550000 -3.9996941680
-4.9714987500 2.4624756250 -5.6474048664
-4.4377075000 2.5891106250 -4.7976409840
-4.4674984375 3.1696912500 -4.0409074320
-3.9194231250 2.6524818750 -5.6815709472
-3.3470528125 2.6540809375 -4.8419627280
-2.7176940625 3.2743828125 -6.4401352644
-2.8257718750 2.6926196875 -5.6972765424
-6.7107651016 2.7293712500 -4.0565923040
-6.1420756563 3.4710271875 -5.6498204144
-6.6893027938 3.9163593750 -4.0976890000
-6.1382768750 2.8779900000 -6.4309883030
-5.5517985313 3.4922181250 -4.8758840160
-5.5989305625 4.0460446875 -4.0706063680
-4.9978362500 3.5902312500 -5.6874485648
-4.4645287500 3.7312309375 -4.8424549040
-3.8781700000 4.2981187500 -3.2274959280
-3.9031100000 3.7231953125 -5.6899664336
-3.3810496875 3.7699175000 -4.8435299200
-3.3463675000 4.3543278125 -4.0647391120
-2.8019740625 3.8369840625 -5.6298730392
-6.1654595938 5.7120259375 -5.7021620368
-6.6646834125 5.0308521875 -3.9972332880
-6.1372180000 4.5348337500 -5.6488904608
-5.5830434063 5.2415387500 -4.0807477840
-5.5854621563 4.6451153125 -4.8193485360
-4.4673506250 4.2868312500 -3.9892030480
-3.8870387500 6.0110640625 -5.6420453288
-4.4562781250 4.7894609375 -4.8900535040
-5.0633171875 4.7429000000 -5.6559557768
-3.3087156250 4.9140131250 -4.8737080800
-3.3990828125 5.4475625000 -4.0558151840
-2.7327978125 4.9260934375 -5.6498411376
-6.7080799531 5.5456293750 -4.8895224720
-6.1404134375 6.3026040625 -6.3776957447
-5.6136123750 5.7983081250 -4.8897426560
-5.5748747500 6.3249775000 -3.9899024560
-5.0124831250 5.8322646875 -5.6480757800
-4.4591268750 5.9347659375 -4.8387635840
-4.4815943750 6.5124709375 -4.0592345120
-3.3259290625 6.0485681250 -4.8284926480
-2.8142156250 6.5762184375 -3.2703540960
-2.7910493750 6.0198387500 -5.6910608776
-6.0812951563 3.4234718750 -2.4000315040
-6.1174299375 2.2550678125 -2.5173118640
-5.0067721875 3.0227118750 -3.2431937520
-5.0511159375 2.4306825000 -2.4506479200
-3.9016721875 2.6340993750 -2.3949413680
-3.2958962500 3.2282115625 -4.0408944800
-2.7508981250 3.2537831250 -3.2134041520
-6.1568313750 3.9773118750 -3.2267317600
-5.0678053125 4.1990440625 -3.2440485840
-4.9947590625 3.6010753125 -2.4954488880
-3.9261821875 3.7295646875 -2.4371648880
-2.7808100000 3.8047206250 -2.4088647680
-2.7845187500 4.3669321875 -3.2134171040
-6.0970922813 5.0495975000 -3.2030166480
-6.1604796563 4.5198240625 -2.3436255440
-4.4944540625 5.3629600000 -4.0685599520
-5.0425293750 5.2871321875 -3.2140128960
-3.9398078125 5.4839109375 -3.2237139440
-3.8902906250 4.8999709375 -2.4779248320
-2.8221840625 5.4593606250 -3.2813632960
-2.7508846875 4.9417481250 -2.4215059200
-6.1500373750 6.2611628125 -3.2166162480
-5.0001340625 6.3842234375 -3.1989367680
-5.0436850000 5.8236109375 -2.3854734560
-3.9202159375 6.5570296875 -3.2564306960
-3.8803871875 6.0284253125 -2.3816785200
-2.7768728125 6.0191131250 -2.4489900640
-2.2672556250 2.6021584375 -4.8792774400
-2.2418721875 5.9846996875 -4.8391780480
-6.6811983688 3.3059340625 -4.8245422880
-2.8151696875 2.6746671875 -2.4327353040
-4.9752746875 4.7143856250 -2.3909392000
-6.1758817188 5.6574965625 -2.4823803200
-3.8885706250 4.8846387500 -5.6456964976
-2.2615312500 4.2702359375 -4.0748805280
-6.6960576906 6.0936240625 -4.0240698320
-5.0057509375 4.1634078125 -6.4435762222
-3.9044806250 4.3295759375 -6.4438208855
-3.9364753125 5.4430206250 -6.4545640514
-5.0362675000 6.3982656250 -6.4496226044
-6.1557536875 5.0866581250 -6.4530146037
0.5903765625 6.6914450000 -5.6696667640
0.0974756250 2.3050150000 -4.8311219040
-2.1960100000 6.5488193750 -4.0253520800
-2.1792534375 4.8753937500 -4.8002054800
-1.6615200000 6.4648618750 -3.1906474880
1.1347968750 6.5883793750 -4.8496303120
1.7109162500 6.5107778125 -5.6573869728
0.5617278125 6.6690581250 -2.4375793520
1.6656050000 6.5037365625 -2.4488864480
-2.1974209375 3.1792587500 -4.0691427920
-1.6760728125 2.5384781250 -5.6083882616
-1.0683215625 2.4561196875 -4.8991717120
-1.1518356250 3.0131846875 -4.0762404880
-0.4674637500 2.3780209375 -5.6176644840
0.0029831250 2.8660037500 -4.0268545120
1.0955996875 3.2457609375 -4.8897167520
-2.2103881250 3.7260709375 -4.8990551440
-1.6040478125 3.6767956250 -5.6177655096
-1.0434756250 3.5998659375 -4.8173539280
-1.1029500000 4.1820590625 -4.0327606240
-0.5104503125 3.4761334375 -5.6953933216
0.0765265625 4.0182021875 -4.0122058000
0.0144990625 3.4454690625 -4.8005292800
0.5330253125 3.3018625000 -5.6943856560
1.7069118750 3.7024881250 -6.4317638687
1.1545231250 3.7693396875 -4.0330585200
1.6747425000 3.1322678125 -5.6578286360
-2.2226162500 5.4423487500 -4.0121021840
-1.6595715625 4.7588234375 -5.7003487568
-1.1257803125 4.7508281250 -4.8152945600
-1.1449959375 5.8633859375 -4.8779433840
-0.5932387500 4.5870384375 -5.6779508632
-0.0231796875 4.5450059375 -4.8845359520
0.0178181250 5.0902996875 -4.0466710720
0.5560975000 4.4400590625 -5.6439272544
1.1456006250 4.3269287500 -4.8789277360
1.6944687500 4.8554256250 -6.4538949511
1.1078278125 4.8763343750 -4.0616953920
1.7126496875 4.2891962500 -5.6696020040
-1.6345912500 6.4662996875 -6.4335560370
-1.7041303125 5.8689893750 -5.6911606080
-1.1034606250 6.4185562500 -4.0201971840
-0.5721821875 5.7145925000 -5.6532669416
0.0140556250 5.6499984375 -4.8775159680
0.5465971875 6.1393921875 -6.4626685064
-0.0198471875 6.2021050000 -4.0498702160
0.5862378125 5.5745871875 -5.6572315488
1.1418784375 5.4478581250 -4.8305002080
1.1170996875 6.0338809375 -4.0527067040
1.6953825000 5.4229987500 -5.6538458960
-1.6696765625 3.1150409375 -3.1857386800
-1.6654706250 2.5497925000 -2.4158977040
-0.5831740625 2.9436859375 -3.2736309520
-0.4906300000 2.4162506250 -2.4113515520
1.1787912500 2.7103437500 -4.0098614880
1.7168018750 2.5838162500 -3.1919685920
-1.6931384375 4.2200468750 -3.2731646800
-1.6050690625 3.6985240625 -2.4108464240
-0.5377687500 4.0206881250 -3.2747059680
-0.5200984375 3.4862384375 -2.4097455040
0.6020940625 3.8818787500 -3.1843139600
0.5544715625 3.2848506250 -2.4579787520
1.7150550000 3.7537656250 -3.2006464320
1.6964440625 3.1800515625 -2.4454282640
-1.0439459375 5.3381812500 -4.0264011920
-1.6354378125 5.2971968750 -3.2670124800
-0.5197356250 5.1806265625 -3.1770478880
-0.5703546875 4.5847271875 -2.4618514000
0.5700187500 5.0591381250 -3.2107101360
0.5828112500 4.4759103125 -2.4465162320
1.6737884375 4.8423509375 -3.2701598160
1.7184143750 4.3202637500 -2.3854216480
-1.7128915625 5.8689490625 -2.4670840080
-0.5509240625 6.3598478125 -3.1911785200
-0.5442321875 5.7969106250 -2.4414520000
0.5472153125 6.1371212500 -3.2543583760
0.6216859375 5.5949853125 -2.3768603760
1.6763012500 5.9468731250 -3.2505893440
1.7149878125 5.3810334375 -2.4206122320
0.5730153125 2.7275571875 -3.2688646160
-1.6614125000 4.7695465625 -2.4028938960
-0.5533965625 6.2990028125 -6.4317580403
-1.6678221875 3.1090881250 -6.4257247397
0.6185550000 3.8845125000 -6.4634609875
-0.4957631250 5.1615856250 -6.4592416662
0.5844237500 4.9993815625 -6.4438566330
2.2617596875 5.2965518750 -4.8607172240
2.2628481250 6.4267128125 -4.8196205280
2.7836184375 6.3453487500 -5.6973283504
3.3566875000 6.2774893750 -4.8605877040
3.8782775000 6.2973768750 -5.7113709088
4.4555793750 6.3788081250 -4.9198042480
5.0609790625 6.3831753125 -5.6389873616
5.6192131250 6.5665971875 -4.8523502320
6.1947950000 6.6027709375 -5.6264044936
2.8049571875 6.3736884375 -2.4115458320
3.9223525000 6.3304868750 -2.4697521200
5.0378531250 6.3935625000 -2.4512955200
6.1896618750 6.6194737500 -2.3771194160
6.7126896875 4.4891865625 -4.8691230720
2.2644875000 2.4879531250 -4.0470725840