ITEM: TIMESTEP
155000
# source: voids-relax.155000.cfg
ITEM: NUMBER OF ATOMS
2298
ITEM: BOX BOUNDS pp pp pp
-6.7187500000 6.7187500000
-6.7187500000 6.7187500000
-6.4760000000 6.4760000000
ITEM: ATOMS x y z
-6.0741464063 -6.5709979688 -6.4604667959
-6.6679386469 -6.0629690938 -4.8781506160
-5.5112898438 -6.4407348438 -4.0171534640
-4.5006218750 -5.7060099688 -4.8410172320
-4.4103890625 -6.2990243125 -4.0834158960
-3.9158218750 -6.2554962188 -6.4552896225
-2.8338746875 -5.9287781875 -6.4313777696
-3.3395546875 -6.2345619375 -4.2690180560
-2.8749800000 -6.5757118438 -5.5817693112
-6.1298918750 -5.9777041250 -5.7099695024
-5.5472015625 -5.9206175938 -4.8776972960
-5.5205455938 -4.8104771875 -4.8698872400
-5.0051193750 -5.8148228125 -5.7261620928
-4.4371968750 -5.1972621875 -3.9836854960
-3.8264893750 -5.1679550000 -3.2811172080
-3.3236043750 -5.6042598750 -4.8728273440
-2.6934796875 -5.3902139375 -5.7142035112
-4.4369281250 -4.6430459375 -4.8189858800
-5.6026688750 -4.2507112500 -4.0812788160
-3.9371606250 -4.5460406250 -5.7053495240
-3.9363946875 -5.6546599063 -5.6398098136
-3.9227556250 -3.9373353125 -6.4428439162
-4.5000171875 -4.0699365625 -4.0572399040
-3.3699368750 -4.4479737500 -4.8765057120
-3.2947809375 -5.0217415625 -4.1105373840
-3.9546293750 -3.9894459375 -3.2474290560
-2.7679771875 -4.4857600000 -5.7354551528
-6.7116901391 -3.7906246875 -4.8259022480
-6.1794896875 -3.7680362500 -5.7154494936
-5.6555642500 -3.6673087500 -4.8464959280
-6.0996225625 -4.8681509375 -5.6228103136
-5.5507060625 -3.1068306250 -4.0215960000
-5.0676037500 -3.6073371875 -5.6236042712
-4.4832875000 -3.5212968750 -4.8711953920
-4.4438081250 -2.9447340625 -4.0941272000
-3.9216000000 -3.3771931250 -5.6498981264
-3.3164287500 -3.4270462500 -4.9015160240
-2.7919496875 -2.6587975000 -6.4294182615
-3.3920146875 -2.8457400000 -4.0826387760
-2.7988028125 -3.2740468750 -5.7581690752
-6.7007213094 -6.5608701250 -3.9936196800
-6.0904098125 -6.5404397500 -3.2747577760
-4.9267653125 -6.3746196563 -3.2239341280
-3.8444418750 -6.2265840938 -3.2257862640
-2.7480359375 -4.9433203125 -3.2353318880
-2.8449606250 -6.0188510938 -3.2875543520
-6.1741469375 -5.4022042188 -3.1820214560
-6.1253903125 -6.0026239688 -2.4406748800
-5.6373712188 -5.3626375000 -4.0409721920
-5.0461306250 -5.7976187813 -2.4673948560
-5.0601996875 -5.2381525000 -3.2747318720
-2.8705456250 -4.3905015625 -2.4221276160
-6.1590861875 -4.2951087500 -3.2397226160
-6.1310958750 -4.8264140625 -2.3918976480
-5.0690012500 -4.1273012500 -3.2202946160
-4.9834984375 -4.6924018750 -2.4315955280
-3.9311943750 -4.5829803125 -2.5041267280
-3.3694800000 -3.9152978125 -3.9867810240
-6.1474318438 -3.1767728125 -3.2929294320
-6.1743243125 -3.7266890625 -2.4337973680
-4.9780159375 -3.0370765625 -3.2287263680
-5.0699956250 -3.5708946875 -2.3885819360
-3.9234409375 -2.8424209375 -3.1805449280
-3.8579868750 -3.4300831250 -2.4298599600
-2.8616634375 -2.6790209375 -3.2352541760
-2.7597803125 -3.8508246875 -3.2787081360
-2.3071381250 -6.4659812188 -4.8847302320
-2.7449184375 -5.4899860313 -2.3863412400
-2.2673765625 -2.6081515625 -3.9790875360
-6.1657525313 -2.6112287500 -5.6419585504
-5.5906597813 -2.5766943750 -4.8625175520
-5.0329618750 -2.4832365625 -5.6997374224
-4.5125140625 -2.3525971875 -4.8615332000
-3.3472140625 -2.2696609375 -4.8476616080
-6.1529385313 -2.6590259375 -2.4428249120
-5.0767278125 -2.4564421875 -2.4579658000
-4.9774246875 -6.4293653750 -6.4440773351
-2.7525778125 -6.5682997188 -2.4871207520
-3.9683490625 -5.6648079063 -2.3888409760
-2.7679906250 -3.2873500000 -2.4878719680
-4.9868175000 -4.6746778125 -5.7060722456
-2.2445731250 -4.2242796875 -4.8668694240
-2.2733159375 -3.1139390625 -4.8770885520
-6.6907110438 -5.4836260625 -4.0987899200
-6.7186496086 -4.3886068750 -4.0442360960
-6.7016037500 -4.9076034375 -4.8958171440
-3.9019678125 -2.3046521875 -5.6301294888
-3.9829825000 -2.2555784375 -2.3958091520
-2.7938712500 -3.9260209375 -6.4328926355
-5.0433087500 -3.0559562500 -6.4671113144
-6.1467357813 -3.1818790625 -6.4538323930
-3.6934178125 -5.1105768750 -6.4413236104
-2.2345756250 -4.8495668750 -4.1718003440
-1.7288956250 -4.6957746875 -3.2502007840
-1.1081368750 -6.3568418438 -4.8378828480
-2.1388871875 -5.4110219063 -4.8906622480
-1.6790290625 -6.4046538125 -5.6217223456
-1.1011762500 -5.7673884375 -4.0260514880
-0.5836578125 -5.6462614688 -6.4235665479
-0.5306871875 -6.1432030625 -5.6615730592
-0.0191081250 -6.3214528438 -4.7980424960
0.0581575000 -5.6763319063 -4.0940235840
1.0861531250 -6.3692446563 -4.8564948720
0.5453878125 -6.3239481875 -5.6603775896
1.1306446875 -5.7884423125 -4.0840764480
1.6613318750 -6.5269982188 -5.6532578752
-1.4295215625 -5.2586178125 -5.6861766784
-1.0483937500 -5.2148250000 -4.8797437120
-0.5953081250 -4.6938128125 -6.4048085549
-0.5168196875 -4.1771812500 -5.6839670672
-1.1527090625 -4.6686578125 -4.0136564240
-0.1074328125 -5.1361484375 -4.9551761600
0.0345343750 -4.6205246875 -4.0270358400
0.4089837500 -5.2278056250 -5.6590435336
1.0907487500 -5.2460268750 -4.9323288320
1.6991450000 -4.7394868750 -6.4187000930
1.1137671875 -4.7247190625 -4.0487433920
-2.2130084375 -3.6799937500 -4.0607887520
-1.6219062500 -4.2136909375 -5.5905960992
-1.0527609375 -4.0842071875 -4.8014229680
-1.1387743750 -3.5186093750 -4.0975594800
0.0260284375 -4.0237653125 -4.8406286720
1.1800946875 -3.6200625000 -4.0280072400
-0.0024590625 -3.5129118750 -3.9707723520
0.5998500000 -4.0936134375 -5.7235924160
1.1845828125 -3.0668675000 -4.8401364960
1.0613071875 -4.1825831250 -4.8643955920
-1.6430703125 -2.5477500000 -6.4054328413
-1.6762878125 -3.1813953125 -5.6661502960
-1.1289650000 -2.9330703125 -4.8740448320
-1.0716809375 -2.4027056250 -4.0417104560
-0.5269246875 -2.9925446875 -5.6332366736
0.0467221875 -2.9882850000 -4.8576735040
0.6222906250 -2.9228040625 -5.6443676224
1.0570206250 -2.4758996875 -4.0391330080
1.6551371875 -2.5610128125 -3.2642796080
1.7897943750 -3.1352643750 -5.4924160536
-1.6603106250 -5.8514292500 -3.2549541680
-0.5044437500 -5.7488715625 -3.2799126720
-0.5452937500 -6.2621867500 -2.3870924560
0.5734050000 -5.8031200938 -3.2145439280
0.5355381250 -6.3625527813 -2.4089813360
1.6558896875 -5.8865642813 -3.2033015920
1.6847131250 -6.4894498125 -2.4834294320
-1.6395765625 -5.2826978125 -2.4730807840
-0.5547806250 -4.6049103125 -3.2736309520
-0.5980896875 -5.1719056250 -2.4711897920
0.5887506250 -4.6613343750 -3.1871763520
0.5289806250 -5.2158328125 -2.4240056560
1.6898193750 -4.7396750000 -3.2589304320
1.7126362500 -5.3079871875 -2.4426047280
-1.6508640625 -3.6342659375 -3.1976415680
-1.6534171875 -4.1823950000 -2.3669002880
-0.5957650000 -3.4605056250 -3.2301899440
-0.5121703125 -4.0492562500 -2.4610095200
0.6116750000 -3.4919359375 -3.2736698080
0.5576965625 -4.0475900000 -2.4728476480
1.7478156250 -3.6932968750 -3.2320291280
1.6569646875 -4.2282975000 -2.3634421040
-1.7265306250 -3.0393206250 -2.4255987520
-0.0044343750 -2.3990237500 -4.0944510000
-0.5633671875 -2.9324521875 -2.3909910080
0.5309425000 -2.3637771875 -3.1861272400
0.5776646875 -2.9666103125 -2.4268810000
2.2143790625 -6.0001084688 -4.0105090880
1.6382462500 -5.3421050000 -5.6947858728
2.2260025000 -4.3101050000 -4.8076010720
2.2365106250 -2.7071456250 -4.0654773760
-1.6523959375 -2.5144115625 -3.2839925520
-0.5158656250 -2.3582140625 -3.1992994240
1.6857478125 -3.1254953125 -2.4312717280
-2.2254784375 -5.9437905625 -3.9969224400
-1.6869571875 -6.4033544063 -2.4548055120
1.6985000000 -4.1870578125 -5.6527242528
0.6091353125 -3.4985875000 -6.4005829649
1.6954900000 -5.9417494063 -6.4203347649
2.2212590625 -5.4692869063 -4.8855721120
2.2244034375 -4.8940853125 -4.0904358800
-1.7845000000 -5.8301926250 -6.4326626080
-0.5413834375 -3.5330681250 -6.4178021308
-0.5360084375 -2.4150143750 -6.4609493874
1.6662634375 -2.6218040625 -6.4502143813
6.1901187500 -6.0237745938 -5.6808987384
6.1600321875 -4.8729481250 -5.6506493424
6.6914046875 -3.2386659375 -4.0003029120
2.2436862500 -6.5169429375 -4.8999747360
2.8099559375 -6.6616696500 -5.7263965240
3.3767228125 -6.2162761875 -4.0590143280
4.4874665625 -6.3643480313 -4.1131277840
5.5705156250 -6.5141680938 -4.0321130240
2.8225334375 -4.4357053125 -5.6105110944
2.8080478125 -5.4715309688 -5.6586834680
3.3096696875 -5.0472996875 -4.1191116080
3.9431134375 -5.7026425313 -5.6004111248
4.5276446875 -5.7551952500 -4.8179497200
5.0311075000 -4.7680550000 -5.6954269968
4.4580250000 -5.2138037500 -3.9948371680
5.0649296875 -5.9274559375 -5.6613049528
5.6448653125 -5.9429305625 -4.8383232160
5.6661368750 -5.3958335000 -4.0001215840
2.7286321875 -3.9026128125 -3.2827750640
3.4254471875 -4.4835696875 -4.8316658880
3.3541209375 -5.6751574688 -4.8349556960
3.3526025000 -3.9227556250 -3.9963136960
3.9375368750 -4.6469159375 -5.6729216016
4.5126081250 -4.6719634375 -4.8173150720
4.5204690625 -4.0937343750 -4.0111178320
5.5831468750 -4.8763612500 -4.8570906640
5.6227203125 -4.2880003125 -4.0583537760
2.2577418750 -3.6204387500 -4.2674508640
2.7148184375 -3.3216559375 -5.5850163776
3.2374968750 -3.3597512500 -4.8437371520
4.3897759375 -3.5748856250 -4.8730993360
4.4937687500 -2.4244340625 -4.8772051200
5.0691087500 -2.5430737500 -5.6748838296
5.5994331250 -3.7471006250 -4.8607819840
6.1697340625 -3.7581596875 -5.6533174544
5.5340731250 -3.1674740625 -4.0594806000
6.1510962500 -4.3193634375 -6.4626293914
2.8202893750 -6.0437010625 -3.2643573200
2.8238100000 -6.5918829344 -2.4561136640
3.9419846875 -6.2545408125 -3.2386476000
5.0024318750 -6.4550860938 -3.2170695680
6.1480862500 -6.5730673438 -3.2566767840
2.8140409375 -5.5106784375 -2.4025700960
3.8483656250 -5.1719056250 -3.2645256960
3.9661587500 -5.6998072188 -2.4085021120
5.0651581250 -5.3484475000 -3.2818813760
5.0690012500 -5.8705655938 -2.4380974320
6.2273406250 -5.4411259375 -3.1914764160
6.1489865625 -6.0406037188 -2.4313882960
2.8656812500 -4.4127271875 -2.3879213840
2.7698315625 -4.9519337500 -3.2312779120
3.9166415625 -4.0504925000 -3.2604976240
3.9503696875 -4.6132818750 -2.4590278640
5.0718500000 -4.2069990625 -3.2074721360
4.9935496875 -4.7830109375 -2.4471120240
6.1623031250 -4.3157353125 -3.2104899520
6.1137265625 -4.8765493750 -2.4038005360
3.4201393750 -2.8148068750 -4.0090973200
6.0970506250 -3.1962034375 -3.2600184000
3.8660493750 -3.5123340625 -2.4201459600
4.4642331250 -2.9979062500 -4.0903063600
5.0430131250 -3.6427584375 -2.4018318320
4.9893571875 -3.0840271875 -3.1887564960
6.2078293750 -3.7465900000 -2.4228270240
6.7140200000 -2.7022275000 -4.8214597120
2.8107487500 -2.7564881250 -3.2531926960
3.8587259375 -3.4765768750 -5.6549377496
3.9135643750 -2.3338653125 -5.6192264952
5.6073343750 -2.5977509375 -4.8266664160
6.1753509375 -2.6664031250 -5.6590616664
2.8115684375 -3.3292884375 -2.4588206320
3.9402243750 -2.9168378125 -3.1719836560
5.0861340625 -2.4875903125 -2.4171799520
6.1601531250 -2.6600337500 -2.4285388560
5.0631425000 -5.3651234375 -6.4375000505
2.8199803125 -3.8638053125 -6.4717040159
2.8146859375 -2.7782434375 -6.4468196621
3.9153650000 -4.0588909375 -6.4266840943
5.0198737500 -3.6335671875 -5.6054300248
3.3150715625 -2.2929078125 -4.8578936880
3.9292325000 -2.3403959375 -2.4054065840
2.8267931250 -6.0407690000 -6.4141811402
5.0480253125 -4.1763346875 -6.4371906272
5.0033053125 -3.0959059375 -6.4645229220
6.2194931250 -5.4345415625 -6.4352478272
3.9024784375 -2.9047843750 -6.4105212935
6.1574656250 -6.5978251313 -6.4428851035
-6.6975047750 -2.0869915625 -4.0930003760
-5.6257773438 -2.0099946875 -4.0479403680
-4.4437678125 -1.8396340625 -3.9802661680
-3.2903196875 -1.6766237500 -4.0898271360
-2.8023368750 -2.0684209375 -5.6473750768
-6.1539503750 -1.5394268750 -5.6207885064
-5.5660772188 -1.4391831250 -4.8383232160
-5.6046482188 -0.8692181250 -4.0620062400
-5.0462246875 -1.3129781250 -5.6630897384
-4.4606453125 -1.2971353125 -4.8322357760
-3.9023037500 -0.5711206250 -6.4481331244
-4.5009981250 -0.7178715625 -4.0380579920
-3.9445109375 -1.1684175000 -5.6962118880
-3.4192121875 -1.0942290625 -4.8330906080
-3.3159853125 -0.5372178125 -3.9909515680
-2.8328803125 -1.0001262500 -5.6298639728
-6.6694534563 -0.4003703125 -4.8476616080
-6.1582208125 0.1683853125 -6.4210736765
-6.1312006875 -0.4247190625 -5.7167278560
-5.6114677500 -0.2811393750 -4.8331294640
-5.5944706563 0.2796209375 -4.0014815440
-5.0337546875 -0.2559709375 -5.6413795960
-4.4760984375 -0.1497743750 -4.8181440000
-4.4769315625 0.4511371875 -4.0937515920
-3.9362603125 -0.0252221875 -5.6232118256
-3.3338034375 -0.0109246875 -4.8416130240
-3.4050087500 0.5845446875 -4.0726657360
-2.8068518750 0.1521528125 -5.6892760920
-6.1498075938 0.7644593750 -5.6441694568
-5.5656149688 0.7942100000 -4.8821139280
-5.0467218750 1.4481862500 -6.3896850226
-5.6077200313 1.3706384375 -4.0695831600
-4.9845734375 0.8550281250 -5.6855174216
-4.4719193750 1.0513365625 -4.8484775840
-3.9369993750 1.5619884375 -6.4535626028
-4.4871709375 1.5754931250 -3.9899413120
-3.8706853125 1.0124618750 -5.6302447616
-3.3324596875 1.1770578125 -4.8155536000
-2.7888456250 1.2693600000 -5.6307421184
-6.1756720938 -2.0505759375 -3.1982503120
-5.0575121875 -1.8984634375 -3.2738640880
-3.8434878125 -1.7371865625 -3.2681004480
-2.7837796875 -1.5534690625 -3.1808816800
-2.7619437500 -2.1389275000 -2.4092792320
-6.1613315938 -0.9591284375 -3.2335574640
-6.1265432500 -1.4837956250 -2.3896180960
-5.0675634375 -0.7711781250 -3.2182482000
-4.9778815625 -1.3453490625 -2.4471897360
-3.9276468750 -0.5899062500 -3.2861684880
-3.9399959375 -1.1589843750 -2.4734952480
-2.7194409375 -0.4486378125 -3.2701468640
-2.8665143750 -0.9762881250 -2.3995911360
-6.1601961250 0.1663831250 -3.2408753440
-6.1503639063 -0.3751346875 -2.4240315600
-4.9986021875 0.3169234375 -3.2359406320
-5.0355015625 -0.2161556250 -2.3914054720
-3.9437718750 0.5280400000 -3.2046486000
-3.8592903125 -0.0579693750 -2.4369576560
-6.1468688125 1.3298690625 -3.1937559680
-6.1277929375 0.7263775000 -2.4481740880
-5.0610193750 1.4398281250 -3.2407069680
-5.0359046875 0.8940775000 -2.4248345840
-2.7940996875 1.8008668750 -3.2066173040
-3.9202159375 1.0960431250 -2.3953817360
-2.8418700000 0.6825040625 -3.2799774320
-2.7378234375 1.2192381250 -2.4357660720
-2.2421275000 -1.5135462500 -4.0767974240
-2.2497465625 1.8875521875 -4.0759814480
-6.1861439375 1.8945262500 -5.6584645792
-5.5699364688 1.9015675000 -4.9104788080
-5.0013434375 2.0680984375 -5.6548561520
-4.4081853125 2.0928771875 -4.8741095920
-3.8846603125 2.1618384375 -5.7391179784
-3.3336556250 1.7646393750 -4.0680289200
-6.1616594688 1.8968643750 -2.4028032320
-4.9747506250 2.0042837500 -2.4194076960
-3.8792718750 1.6206162500 -3.2580496960
-2.8072550000 0.1155490625 -2.4701018240
-2.2552156250 -0.9534443750 -4.8701592320
-2.2797256250 0.2183459375 -4.8360566160
-6.6664433219 1.2518912500 -4.0722901280
-3.8959209375 2.1931209375 -2.4460499600
-5.0411990625 -1.8855231250 -6.4400023769
-3.9281709375 -1.7515646875 -6.4511948477
-2.8019740625 -0.4346493750 -6.4333415518
-6.1296741875 1.2891131250 -6.4365773500
-2.1948275000 -2.0977953125 -4.8792644880
-2.2341993750 0.7560475000 -3.9855376320
1.7119509375 -1.4699550000 -3.2557053840
-1.6262600000 0.8453800000 -3.2777367360
-1.6929637500 -1.3189040625 -6.4517859770
-1.6777793750 -1.9424443750 -5.7428611064
-1.1444853125 -1.3077778125 -4.0153531360
-0.5401740625 -1.8668315625 -5.6500898160
-0.5669684375 -1.2592146875 -3.2521694880
-1.1466084375 -1.8503437500 -4.8781247120
-0.0105753125 -1.7941615625 -4.8399163120
-0.0023918750 -1.2482362500 -4.0449484560
0.5785784375 -1.8654475000 -5.5947070640
1.1632843750 -1.8994981250 -4.8253453120
1.1350253125 -1.3629656250 -4.0237848880
1.6777390625 -2.0049690625 -5.7078635072
-2.1676031250 -0.3735221875 -4.0903193120
-1.6857612500 -0.7883915625 -5.6257866832
-1.0655803125 -0.7794556250 -4.8871004480
-0.5989362500 -0.1298600000 -3.2216675280
-0.5281071875 -0.7115290625 -5.6981896584
0.0150096875 -0.6597543750 -4.8305131600
0.5564737500 -0.7541796875 -5.7035543768
-0.0105081250 -0.1112625000 -3.9837632080
1.0768543750 -0.7940218750 -4.8570259040
1.1475759375 -0.2569384375 -4.0466969760
1.6802384375 -0.8660468750 -5.6316409872
-1.6981371875 0.2789087500 -5.6480291528
-1.1249471875 -0.2109015625 -4.0905783520
-1.1463665625 0.3848768750 -4.8575698880
-0.5724778125 0.4266003125 -5.6566228048
-0.0026471875 0.3848231250 -4.8862585680
0.0123490625 0.9726196875 -4.0832475200
0.5737006250 0.4365709375 -5.6601897856
1.1236706250 0.3151900000 -4.8507441840
1.7064684375 0.2104043750 -5.6182861800
1.0840971875 0.8742840625 -4.0629776400
-2.2028631250 1.3010053125 -4.8324430080
-1.6900343750 1.4621075000 -5.7023796304
-1.0490790625 0.9161553125 -4.0394568080
-1.1466084375 1.4898693750 -4.8552773840
-0.5643212500 1.5512384375 -5.6475810136
0.0009003125 1.5476640625 -4.8625564080
0.0251415625 2.0957931250 -4.0590920400
0.5836578125 1.5215818750 -5.6140806656
1.1700703125 1.4711375000 -4.8237781200
1.6625009375 1.3192668750 -5.7173042200
-1.7208734375 -1.3634090625 -3.2179762080
-0.5056128125 -0.7158693750 -2.4320358960
0.5576965625 -1.2835768750 -3.2457971040
0.5810643750 -1.8082978125 -2.3889445920
1.6592893750 -0.9298615625 -2.4299635760
-1.6512134375 -0.8351271875 -2.3847092880
-0.5262125000 0.4038506250 -2.4030881760
-0.5174646875 1.0009862500 -3.1833555120
0.5826903125 -0.1608065625 -3.2524026240
1.6930175000 -0.3360315625 -3.1968255920
-1.6620843750 1.4000934375 -2.4665788800
-1.6533096875 -0.2551646875 -3.1804024560
-0.5258631250 2.1226009375 -3.2489444400
-1.7356546875 0.3171115625 -2.4044092800
-0.5839131250 1.5789734375 -2.4191357040
0.5402412500 0.9825096875 -3.2024856160
1.6512000000 0.7823581250 -3.2795629680
1.7215318750 0.2385828125 -2.4229824480
-1.7071537500 1.9910478125 -3.2559773760
0.5875143750 2.0653437500 -3.2618575840
1.1683234375 2.0169284375 -4.0237978400
1.6851565625 1.3291837500 -2.4410763920
2.2140431250 -2.2353818750 -4.8372611520
2.2315925000 -1.0359909375 -4.8592147920
2.2162871875 -0.4410993750 -4.0810845360
2.2115840625 1.2575887500 -4.8402789680
1.7428168750 1.8945665625 -3.2491516720
1.7334778125 1.9269106250 -6.4440190511
-1.6613721875 -1.9682712500 -2.4686771040
-0.6084903125 -1.7985556250 -2.3997206560
1.6887309375 -2.0350018750 -2.4304816560
0.5532218750 -0.7065303125 -2.4246791600
0.5952409375 0.3853471875 -2.4296656800
0.6008443750 1.5398031250 -2.4005884400
-1.1051806250 2.0188231250 -4.0019348640
0.5778393750 -0.1455818750 -6.4231314902
1.6869168750 -1.4452434375 -6.4389826659
-0.5757565625 -0.1286237500 -6.4660709061
-1.6681984375 0.8684925000 -6.4234780858
-0.5437753125 0.9960815625 -6.4591112396
-1.6457175000 2.0512881250 -6.4658622235
-0.5368684375 2.1201956250 -6.4518705535
-0.5716043750 -1.2957646875 -6.4556309077
6.7079865625 -1.5065318750 -4.8494230800
6.7084703125 -0.9546134375 -4.0228912000
6.7166671875 0.6737562500 -4.8752623200
6.7021950000 1.8219637500 -4.8584765280
2.2760840625 -1.5746868750 -4.0697256320
2.3158053125 1.8356296875 -4.0412182800
2.7788750000 -2.1781650000 -5.6764134608
2.7621990625 -2.2328959375 -2.4204568080
6.6948984375 0.1633865625 -4.0086440000
2.2722812500 0.1641793750 -4.8101785200
3.3527503125 -1.7080003125 -4.0733133360
3.4162559375 -1.1400912500 -4.8407840960
4.4526365625 -1.8933706250 -4.0078150720
5.6302184375 -2.0429837500 -3.9954977200
2.7644968750 -0.5256750000 -3.2471311600
2.8231515625 -1.1044550000 -5.5967146240
3.9374562500 -0.6473246875 -6.4484915062
3.3449162500 -0.5807284375 -4.0055614240
3.9406678125 -1.2317350000 -5.7014457912
4.4872246875 -1.3318981250 -4.8147894320
4.5319043750 -0.7577137500 -4.0189019840
5.0178446875 -1.3687571875 -5.6919765840
5.5583681250 -1.5165428125 -4.8616497680
6.1400371875 -0.9958396875 -6.4356777041
5.6201806250 -0.9476259375 -4.0622134720
6.1538778125 -1.5596368750 -5.6373308008
2.8529693750 0.6186490625 -6.4376689446
2.2558068750 0.7153184375 -3.9860039040
2.7829331250 0.0131418750 -5.7085162880
3.3176515625 -0.0406350000 -4.8408877120
3.4346921875 0.5335493750 -4.0282144720
3.8848887500 -0.0699018750 -5.6802770424
4.4297256250 -0.2333153125 -4.8847043280
4.4824006250 0.3355881250 -4.0990489600
6.1955206250 -0.4157562500 -5.6579141192
5.6422853125 -0.3931409375 -4.8633205760
5.5622650000 0.1754534375 -4.0799447600
6.1597365625 0.1363100000 -6.4726210175
2.7544859375 1.1938815625 -5.6793716976
3.3211856250 1.0548975000 -4.9074739440
3.3487728125 1.6148246875 -4.1017170720
3.9447259375 1.0385978125 -5.5978025920
4.5307890625 0.9319443750 -4.8576605520
5.0841990625 0.8135196875 -5.6706899720
4.4354634375 1.4846959375 -4.0550769200
5.0495034375 -0.2587928125 -5.5902904320
5.6172915625 0.7843603125 -4.7983144880
6.2054643750 1.2388837500 -3.2361349120
6.1424425000 0.7037756250 -5.6676643848
2.8045003125 -1.6529603125 -3.2138186160
3.8792987500 -1.7796625000 -3.2078347920
5.0289843750 -1.9729609375 -3.2726206960
6.2080981250 -2.0867631250 -3.2285061840
2.8094184375 0.0526884375 -2.4532253680
2.8260540625 -1.0802809375 -2.4209489840
3.9378996875 -0.6717271875 -3.2768171440
3.9493887500 -1.2038118750 -2.4313753440
5.0771846875 -0.8319828125 -3.2049724000
5.0098896875 -1.4146865625 -2.4360898720
6.1538778125 -0.9714103125 -3.1965924560
6.1307518750 -1.5343475000 -2.4043445200
2.8488171875 1.7642093750 -3.1780970000
2.8577396875 0.6052653125 -3.2753924240
3.9862881250 0.4642656250 -3.1906345360
3.8597203125 -0.1171212500 -2.4492361520
5.0392237500 0.2873071875 -3.2062287440
5.0184493750 -0.2700668750 -2.3956019200
6.1101656250 0.1348990625 -3.2438931600
6.2065125000 -0.4017946875 -2.3981275600
3.8966196875 1.6111159375 -3.2240766000
3.9195575000 1.0487968750 -2.4176332720
5.6404040625 1.3545806250 -4.0036574800
5.0735296875 1.8970121875 -2.4470990720
6.1715750000 0.6839553125 -2.4220110480
3.9998196875 2.1247778125 -5.6677524584
4.5467259375 2.0675071875 -4.7970581440
5.0568268750 1.9328768750 -5.6995314856
5.6168212500 1.8856440625 -4.8567668640
6.1540390625 1.7993215625 -5.6990535568
5.0176296875 1.3510331250 -3.3011928080
6.1478443750 1.8173546875 -2.4668120160
2.7410618750 1.1553562500 -2.4554013040
5.0862953125 0.8615050000 -2.3773007440
2.8379328125 1.7836400000 -6.4463414742
3.4496212500 2.2104418750 -4.8571165680
3.9940012500 2.1481590625 -2.3753061360
2.8096603125 -1.6282487500 -6.4746804243
5.0469771875 -1.9624393750 -6.4400319074
6.1823250000 -2.1059384375 -6.4664362691
2.7730834375 -0.5678150000 -6.4676323863
3.9610793750 0.5035031250 -6.4593103118
5.0678187500 -0.7915493750 -6.4697154306
-3.7915787500 6.7167075000 -5.5226913536
-2.7839140625 2.3133596875 -5.6548859416
-5.6131837188 6.4471109375 -4.8664031520
-5.0002684375 6.4863215625 -5.5896531936
-4.3910659375 6.5727918750 -4.8888878240
-3.3336690625 6.2809562500 -4.1103042480
-5.0499468750 6.5194584375 -2.3934907440
-3.8644503125 6.6543709375 -2.4118048720
-6.1565169375 6.2912762500 -5.7120444128
-3.9475881250 2.7595787500 -3.2462115680
-6.0849716563 2.4378043750 -3.2498510800
-5.5547776250 2.4757921875 -4.1198628240
-3.9462578125 2.7800037500 -6.4244529828
-4.5021671875 2.6640650000 -4.0742847360
-3.3660265625 2.3467518750 -4.8586578560
-2.7948253125 2.8819271875 -6.4403483248
-6.1253728438 3.5890487500 -6.4317506577
-6.1392685625 2.9564112500 -5.7080513112
-5.6041228125 3.0783431250 -4.8728402960
-5.0093656250 3.7108596875 -6.4597048298
-5.5545800938 3.6102396875 -4.0162597760
-5.0145659375 3.1176612500 -5.6637023680
-4.4637225000 3.2164403125 -4.8714155760
-4.4036837500 3.7950590625 -4.0782480480
-3.8936768750 3.3462868750 -5.6510249504
-3.3004918750 3.4000906250 -4.8900016960
-3.3646290625 3.9578812500 -4.0847629040
-2.7589875000 3.4909281250 -5.7238954928
-6.7022779094 4.0099112500 -4.8592536480
-6.1258767500 5.1983775000 -5.6282333160
-6.6981770531 4.6006909375 -4.0920419280
-6.1301216563 4.1277581250 -5.6186073896
-5.5470282188 4.1556678125 -4.8447733120
-5.6194684375 4.7243428125 -4.0363483280
-5.0210428125 4.2778415625 -5.7200759480
-4.5026912500 4.3503503125 -4.8619476640
-3.9206728125 5.5558418750 -5.7314167192
-4.4374656250 4.8984525000 -3.9922726720
-3.9092106250 4.4344421875 -5.6431643816
-3.3451043750 4.5621387500 -4.8673745520
-3.2889221875 5.1095825000 -4.0916663200
-2.7790362500 4.6902518750 -5.6501040632
-6.7009181688 5.1956765625 -4.8274823920
-6.6901660188 5.7496778125 -4.0098614880
-5.5592993438 5.2840281250 -4.8368984960
-5.5530280625 5.8765143750 -4.0825999200
-5.0011015625 5.4302012500 -5.6541036408
-4.4370087500 5.4168712500 -4.8311348560
-4.5100550000 6.0120046875 -4.0457126240
-3.9335056250 6.1467425000 -6.4404310881
-3.3934121875 5.7546228125 -4.8328574720
-2.7769131250 6.2599668750 -3.2525969040
-2.8370190625 5.7640156250 -5.6663199672
-6.1736900625 2.9929209375 -2.4218556240
-5.0384309375 2.5747996875 -3.1957764800
-3.3652606250 2.8703440625 -3.9883093600
-2.7680443750 2.9221993750 -3.2507059120
-6.1439703438 3.5471103125 -3.2698619200
-4.9780159375 3.6765268750 -3.2575575200
-5.0534540625 3.1488496875 -2.4000833120
-3.9088881250 3.8967540625 -3.1786668880
-3.8583093750 3.3071300000 -2.4212080240
-2.8447456250 4.0805521875 -3.2341403040
-2.7517850000 3.4989100000 -2.4556862480
-6.1852597500 4.6785343750 -3.2004132960
-6.0925423438 4.0813718750 -2.4415556160
-5.0414678125 4.8274487500 -3.2804955120
-5.0357300000 4.2581421875 -2.4698816400
-3.8301846875 5.0161381250 -3.2848344320
-3.9471178125 4.4922368750 -2.4222182800
-2.7446093750 5.2003796875 -3.2371581200
-2.7543784375 4.6277809375 -2.4145766000
-6.1852369063 6.3445962500 -2.4463219520
-6.0883444688 5.7754912500 -3.2475326720
-5.0163128125 5.9566825000 -3.1801175120
-4.9762153125 5.3619387500 -2.4353775120
-3.9008928125 6.1108643750 -3.2854302240
-3.9140615625 5.5719131250 -2.4583673120
-2.8378790625 5.7372481250 -2.4035933040
-2.2603487500 4.1364656250 -4.0019089600
-2.8069325000 2.3786525000 -2.4180477360
-6.1338519063 5.2390259375 -2.4025571440
-5.0619868750 4.8848940625 -6.4563985727
-2.2422350000 3.6376656250 -4.8616756720
-2.2665434375 5.8499753125 -4.8595126880
-6.6778271688 6.3058962500 -4.8244257200
-6.6718660250 2.3595712500 -4.0269063200
-6.7124229128 3.4829865625 -4.0360763360
-6.6784321250 2.9167303125 -4.8422476720
-2.7952956250 4.1031406250 -6.4158649002
-2.2052684375 6.4029150000 -4.0570715280
-2.2370615625 2.4792993750 -4.8415094080
-1.6800637500 6.4273040625 -3.1846118560
1.0775934375 2.5862081250 -4.8454986240
-2.2190553125 3.0323734375 -4.0650499600
-1.6701603125 2.5828890625 -5.6263759992
-1.0815037500 2.5747056250 -4.8363415600
-1.1332246875 3.1594653125 -4.0860322000
-0.5414103125 2.6879568750 -5.6538368296
0.0151575000 2.7039475000 -4.8094143520
0.0345343750 3.2594537500 -3.9938010080
0.5378493750 2.6182834375 -5.6985730376
1.6494128125 2.4854537500 -5.6551799520
1.7175409375 3.0631587500 -6.4328818854
1.1220446875 3.6629012500 -4.9147659200
-1.6676071875 4.1933062500 -6.4568432149
-1.6434062500 3.6274396875 -5.6352830896
-1.1038368750 3.7724437500 -4.7994542640
-1.0878596875 4.3541800000 -4.0455701520
-0.5632596875 3.7666656250 -5.6515689344
0.5862243750 4.3594071875 -6.4426712660
0.0342521875 4.3875721875 -4.0567347760
0.0008196875 3.7909606250 -4.8397738400
0.5389512500 3.7794581250 -5.6810593432
1.6629175000 4.1600350000 -6.4520056429
1.0836134375 4.1957653125 -4.0521368160
1.7456118750 3.6160312500 -5.6119293384
-2.1961309375 4.7013781250 -4.8654835600
-1.6559300000 5.3977900000 -6.4382326156
-2.2034946875 5.2701471875 -4.0857213520
-1.6493590625 4.7621156250 -5.7018589600
-1.1111065625 4.9038543750 -4.8601214320
-0.5462209375 5.4534750000 -6.4077733972
-1.1032725000 5.4655553125 -4.0298723280
-0.5409131250 4.8611634375 -5.6535259816
0.0286084375 4.9282300000 -4.8954415360
-0.0272512500 5.4662809375 -4.0475259040
0.6272221875 4.9075900000 -5.6246922392
1.1982621875 4.7578156250 -4.8530496400
1.0960968750 5.3165065625 -4.0337579280
1.7459612500 4.7399303125 -5.6843297232
-1.7038481250 6.5335275000 -6.4187640758
-1.7002603125 5.9044643750 -5.6341264760
-1.0885046875 5.9789215625 -4.9116185840
-0.6026584375 6.6515625000 -6.3973373232
-1.1603281250 6.5342531250 -4.0654903280
-0.5156371875 6.0762762500 -5.6794558856
0.0387000000 6.0340287500 -4.8542153200
-0.0322096875 6.5765006250 -4.0036315760
0.6132875000 6.0248106250 -5.6700074016
1.1200021875 5.9016828125 -4.7751304080
1.1870418750 6.5095012500 -4.0577968400
1.6596387500 5.8373306250 -5.6633099224
-1.6707246875 3.1000178125 -3.2151397200
-1.6170956250 2.5240193750 -2.4283057200
-0.5794921875 3.2316515625 -3.2779439680
-0.5259840625 2.6924046875 -2.4341341200
1.2140109375 3.1313406250 -4.0411276160
0.5247478125 2.6323928125 -2.4325151200
1.7295003125 3.0394684375 -3.1659480240
-1.6609287500 4.2072140625 -3.2833449520
-1.6679700000 3.6832993750 -2.4301060480
-0.5241296875 4.3319006250 -3.2369120320
-0.5457371875 3.7702400000 -2.4200164400
0.5712281250 4.3305434375 -3.1632410560
0.5412087500 3.7187743750 -2.4428119600
1.6553253125 4.2083025000 -3.2341532560
1.7258721875 3.6309737500 -2.4339527920
-1.6659946875 5.3195568750 -3.2202039520
-1.6518584375 4.7445393750 -2.4180606880
-0.5509240625 5.4705406250 -3.1854278320
-0.5657590625 4.8923250000 -2.4286295200
0.5440306250 5.4698821875 -3.2348915200
0.6230968750 4.9174665625 -2.4269846160
1.6976400000 5.2764896875 -3.3091323840
1.7445234375 4.7353346875 -2.3988010640
-1.6604987500 5.8629021875 -2.3911593840
-0.6044590625 6.6110753125 -3.2244004000
-0.4917453125 6.0678509375 -2.4276063120
0.5921234375 6.5616656250 -3.3157508560
0.6130725000 6.0375762500 -2.4264535840
1.7267456250 6.3561793750 -3.2302158480
1.6601896875 5.7880956250 -2.4281114400
2.2388890625 2.3585903125 -4.9281323840
2.2393190625 2.9062356250 -4.1018206880
2.2034812500 4.0501028125 -4.0411146640
0.6238896875 3.1699465625 -3.2626217520
1.6328712500 2.4463909375 -2.4318804720
2.2125918750 5.8065856250 -4.8505499040
0.6050100000 3.2084315625 -6.4356784812
0.5298943750 5.4571568750 -6.4624566117
2.8627115625 2.3202665625 -5.6063638640
2.3019646875 5.2555540625 -4.0450391200
2.3053778125 6.3683268750 -4.0473186720
3.3338168750 6.6529331250 -4.8781765200
3.9430596875 6.6717321875 -5.6625068984
4.4679553125 6.4787831250 -4.8458871840