ITEM: TIMESTEP
179000
# source: voids-relax.179000.cfg
ITEM: NUMBER OF ATOMS
2298
ITEM: BOX BOUNDS pp pp pp
-6.7187500000 6.7187500000
-6.7187500000 6.7187500000
-6.4760000000 6.4760000000
ITEM: ATOMS x y z
-6.0888134375 -6.4615481875 -6.4664628984
-5.5368775313 -6.3723635000 -4.0595324080
-4.4993990625 -5.6060269063 -4.8806762560
-3.8696640625 -6.6939807906 -5.6655078768
-4.4534428125 -6.2016750000 -4.0813694800
-3.3756612500 -6.0288499375 -4.0668761920
-3.3174500000 -6.5967290344 -4.8410042800
-6.1739050625 -5.9158996875 -5.6619577336
-5.6314412500 -5.7594777813 -4.8212136240
-5.5576868438 -4.5826309375 -4.7966566320
-5.0721590625 -5.6928183750 -5.6269717912
-4.4267425000 -5.1060215625 -4.0709172160
-3.8943756250 -4.9598215625 -3.1894300000
-3.3180143750 -5.4590650000 -4.8857145840
-2.7349881250 -5.3944360000 -5.6440153280
-6.1829270000 -4.2115812500 -6.4568003438
-6.7098436653 -4.2791450000 -4.0572010480
-6.6651132781 -4.8478468750 -4.8661829680
-4.5109821875 -4.4632253125 -4.7752081200
-5.5443057813 -4.0528978125 -4.1179329760
-3.9712246875 -4.4959993750 -5.6431825144
-3.8935021875 -5.5978784063 -5.6265068144
-3.8908684375 -3.8961493750 -6.3930373887
-4.3486975000 -3.9602596875 -3.7949360000
-3.4053043750 -4.3219165625 -4.8532827760
-3.3366656250 -4.9334168750 -4.0696349680
-2.8186365625 -4.3107500000 -5.6488943464
-3.9808056250 -4.3416696875 -2.5820589120
-2.8129121875 -4.8515690625 -6.4748332346
-6.5267227500 -3.6755190625 -4.8073161280
-6.0390248125 -3.6806253125 -5.5702834776
-6.6979366563 -3.1490243750 -3.9620297520
-5.4819047188 -3.1429640625 -4.1415444720
-6.0987719688 -4.8042556250 -5.6735627256
-4.9935228125 -2.9222262500 -3.2471829680
-5.1146215625 -3.4958059375 -5.5698832608
-4.5663446875 -3.4593231250 -4.8716746160
-3.9197187500 -2.7787540625 -6.4344556829
-4.3625784375 -2.9278431250 -4.0313359040
-3.9278753125 -3.3210781250 -5.6153901128
-3.3514737500 -3.2691018750 -4.8361861360
-3.8692609375 -2.7994478125 -3.1566743920
-2.7894503125 -3.1562940625 -5.6719165264
-6.1190236250 -6.4531161563 -3.3009208160
-4.9872878125 -6.2744511563 -3.2396190000
-3.9088881250 -6.1014917188 -3.2191289360
-3.8878315625 -6.6725618188 -2.4079840320
-2.8109771875 -4.7857656250 -3.1956340080
-2.8477018750 -5.8985155938 -3.2003744400
-6.1862178438 -5.3171918750 -3.2351376080
-6.1321802813 -5.9329720313 -2.4781450160
-5.5950068125 -5.2439843750 -4.0251059920
-5.0749540625 -5.6620115625 -2.4882605280
-5.0230987500 -5.1309750000 -3.2870751280
-2.8744962500 -4.2541915625 -2.3913407120
-6.0991361250 -4.2721171875 -3.2463669920
-6.0476086875 -4.7873915625 -2.3115434400
-5.0094328125 -4.1227862500 -3.1894818080
-5.1462265625 -4.6462575000 -2.2044433520
-3.4695356250 -3.8326168750 -3.9322660560
-6.0663956563 -3.1286934375 -3.2807286480
-6.0801234063 -3.6696468750 -2.4615535040
-4.9431725000 -3.4758915625 -2.4768627680
-3.8041696875 -3.4214293750 -2.5466740480
-2.7956315625 -2.6269909375 -3.2643443680
-2.8582906250 -3.7156165625 -3.3071636800
-2.7861715625 -5.3718287500 -2.3792953520
-2.2963075000 -4.1869503125 -4.8452913920
-6.1516243438 -2.5616846875 -5.6912111208
-5.6047033125 -2.6079903125 -4.8394111840
-5.0644728125 -2.3237468750 -5.6808482256
-4.4837846875 -2.3369290625 -4.8639163680
-2.7936025000 -2.6003846875 -6.4677190611
-6.1290815938 -2.6356178125 -2.4086834400
-5.0121471875 -2.3904237500 -2.3934130320
-3.3291540625 -2.6551693750 -4.0897105680
-2.7766040625 -6.5129237813 -5.7030855144
-2.7609359375 -6.5178284688 -2.4716301600
-3.9839634375 -5.5368251250 -2.4237725200
-2.6277703125 -3.1647328125 -2.4038393920
-5.0386459375 -4.6141687500 -5.7088621064
-2.7748168750 -3.7341737500 -6.4257950690
-2.2656700000 -4.7556253125 -4.0691557440
-2.2646353125 -3.0639112500 -4.8076787840
-2.2773606250 -5.8705212500 -4.0095506400
-6.7075556488 -6.5241064688 -4.0081777280
-6.7061605272 -2.6046175000 -4.8258374880
-3.9839365625 -6.1304199688 -6.4680472389
-4.9917625000 -2.9311756250 -6.4312005862
-5.0289037500 -6.2659828438 -6.4256057108
-3.8750928125 -5.0375037500 -6.4591261344
-2.2348175000 -6.4048056563 -4.8496691680
-2.1585865625 -5.3124350000 -4.8437112480
-2.2325196875 -3.6456475000 -4.0298464240
-2.2069615625 -2.4783050000 -4.0310898160
-1.7475468750 -4.6539571875 -3.2091558960
-1.1403196875 -6.2328849375 -4.8060079760
-1.6685343750 -6.3608139688 -5.6740717392
-1.1107706250 -5.1311093750 -4.8345541840
-1.1011359375 -5.6700794375 -4.0018442000
-0.4981953125 -5.7229748125 -6.4687699734
-0.0482406250 -6.3158749375 -4.8592406960
0.0013840625 -5.2190309375 -4.8936153040
0.0536290625 -5.7625818438 -4.0398971760
1.1230659375 -6.4824246875 -4.9286116080
0.5249359375 -6.3735231563 -5.6409780840
1.0868384375 -5.9484426250 -4.0682491040
1.7433543750 -6.5447316875 -5.6215772832
-1.6463893750 -5.2338390625 -5.7203660728
-0.5905781250 -4.5854931250 -6.4532016306
-0.5051962500 -4.0166434375 -5.6809065096
-1.1573046875 -4.5691665625 -3.9751112720
-1.7037540625 -4.6087265625 -6.4414730765
-0.5640256250 -5.1647837500 -5.6744305096
-0.0354346875 -4.6863684375 -4.0560353680
0.6015834375 -5.2274696875 -5.6314609544
1.1629887500 -5.3505706250 -4.8192060640
1.1305640625 -4.7730806250 -4.0674460800
-1.6801443750 -3.5508325000 -6.4663259699
-1.6768656250 -4.0869350000 -5.5866172448
-1.0805228125 -4.0712265625 -4.8816217520
-1.2018365625 -3.5334175000 -4.0413089440
0.0167431250 -4.0836965625 -4.7898179760
1.1586887500 -3.6271306250 -4.0189408400
-0.0272243750 -3.4974050000 -4.0427595680
0.5433990625 -4.1567696875 -5.6930852752
1.6885965625 -3.7443728125 -6.4407603279
1.1564312500 -3.1127296875 -4.8997416000
1.0943231250 -4.1873131250 -4.8276119120
-1.6808700000 -3.0028646875 -5.6044560344
-1.1016331250 -2.9404475000 -4.7904137680
-0.5153953125 -2.3551100000 -6.4690702008
-1.0926300000 -2.3410275000 -4.0621228080
-0.5810643750 -2.9191759375 -5.6520054168
0.0090971875 -2.9653203125 -4.8781635680
0.5736065625 -3.0175518750 -5.6564220488
1.0703909375 -2.5736171875 -4.0497018400
1.6572871875 -2.6194121875 -3.2488019680
1.7590896875 -3.1942550000 -5.6413873672
-1.7089812500 -5.7967144375 -3.2626994640
-0.5323534375 -5.7377170938 -3.2561198480
-0.5790218750 -6.2585075625 -2.3856288800
0.5910618750 -5.7893076875 -3.1681757680
0.5231084375 -6.4075401875 -2.4822896560
1.6656184375 -5.9613385938 -3.2428310960
1.6726462500 -6.5202136250 -2.4259873120
-1.6254000000 -5.2307618750 -2.4379549600
-0.5601153125 -4.5486743750 -3.2038585280
-0.5811046875 -5.1585756250 -2.4754250960
0.5548075000 -4.6751078125 -3.2821404160
0.5466106250 -5.1943731250 -2.4286683760
1.6759518750 -4.9153031250 -3.2797313440
1.7216259375 -5.4235026563 -2.3738684640
-1.7035928125 -3.4332678125 -3.0686396480
-1.7131200000 -4.0620621875 -2.4626285200
-0.5881056250 -3.4320046875 -3.2707815120
-0.5444471875 -3.9971859375 -2.4485237920
0.5497281250 -3.6239728125 -3.2759105040
0.5797206250 -4.1344634375 -2.3874939680
1.7080137500 -3.7563053125 -3.1761801040
1.6629175000 -4.3605225000 -2.4689750000
-1.6297000000 -2.5247584375 -3.2040398560
0.0308928125 -2.3925871875 -4.0705286560
-0.6138787500 -2.9065850000 -2.3888021200
0.5585834375 -2.4422387500 -3.1664920080
0.5274756250 -3.0609281250 -2.4749458720
1.6783975000 -5.4582506875 -5.7034468752
-0.5106250000 -2.3552443750 -3.2572984800
1.6900746875 -3.1675681250 -2.4381233360
2.2370212500 -2.7148050000 -4.0265695680
-0.6081678125 -6.2965746563 -5.6729513912
-1.6717728125 -6.3402855000 -2.4495081440
1.6421162500 -4.3190140625 -5.6490083240
0.6021881250 -3.5678712500 -6.4587421076
2.2142984375 -6.0692672500 -4.0638713280
2.2322643750 -5.4862866875 -4.8271326880
2.2210709375 -3.8839078125 -4.0539371440
0.5687421875 -5.7979332188 -6.4354409415
1.7411103125 -4.8609350000 -6.4544991619
0.5430093750 -2.4537546875 -6.4641103619
6.7050034375 -5.9979719063 -4.8394370880
6.7170568750 -5.3779051875 -4.0688967040
2.2929212500 -3.2862481250 -4.7972265200
6.1690756250 -6.0094031875 -5.6899133304
6.1943515625 -4.8570918750 -5.5774303912
2.3002850000 -6.6480143281 -4.8159551120
3.4061778125 -6.2106378125 -4.0016628720
4.4777781250 -6.4448843438 -4.0622134720
5.5520121875 -6.5428020625 -4.0628481200
3.4334425000 -4.5713165625 -4.8281947520
2.8376909375 -6.1595081250 -6.4727774258
2.7592965625 -5.6094695938 -5.6806668976
3.3571712500 -5.1632921875 -4.0620839520
3.9539306250 -5.7585008750 -5.6049637528
4.5193940625 -5.8590644375 -4.8451877760
5.0063018750 -4.8357800000 -5.6884860200
4.4647706250 -5.3189118750 -4.0489247200
5.0742015625 -5.9756038438 -5.6673729648
5.6249106250 -5.9591980000 -4.8317047440
5.6527934375 -5.3964072813 -4.0042921280
2.2408375000 -4.4098112500 -4.9097794000
2.8127106250 -3.8771621875 -3.2266410960
3.3538387500 -4.0229053125 -4.0409592400
3.3276087500 -5.6911884063 -4.9109709840
3.3604231250 -3.4306878125 -4.8002313840
3.9482734375 -4.6870403125 -5.6928340064
4.5067628125 -4.7067396875 -4.7844947040
4.5646650000 -4.1461137500 -3.9991113280
5.5557612500 -4.8782559375 -4.8839919680
5.6775318750 -4.3218225000 -4.0427466160
6.1656759375 -5.3989080000 -6.4300882685
3.8890812500 -3.5436165625 -5.6719191168
3.9889084375 -2.9478515625 -6.4017455364
3.3298796875 -2.3537931250 -4.9069947200
4.5120840625 -3.0985128125 -4.0755281280
4.5527996875 -2.5302006250 -4.8641754080
5.1432971875 -2.6059075000 -5.6552304648
5.7178712500 -3.7479606250 -4.8413669360
6.2771400000 -3.7595840625 -5.6150274568
5.5897446875 -3.1952628125 -4.0639231360
6.1710375000 -4.3332712500 -6.4524664750
2.7754484375 -6.2054590000 -3.2938360720
2.8439662500 -6.7179066477 -2.3696072560
3.9501950000 -6.3504617188 -3.1948050800
5.0432146875 -6.4631042500 -3.1959966640
6.1325793750 -6.5782622813 -3.2760270720
2.3076756250 -4.9268190625 -4.0126591200
2.7966662500 -5.6648186563 -2.4647008400
3.9322693750 -5.1717309375 -3.2173804160
3.9051256250 -5.7622674063 -2.4562690880
5.0384712500 -5.3905713750 -3.2748743440
5.0592187500 -5.9054762188 -2.3840616880
6.1878343750 -5.4690020313 -3.1849486080
6.1904412500 -6.0552707500 -2.4156645680
2.7993671875 -4.4588581250 -2.4589112960
2.8333506250 -5.0494496875 -3.1788093600
3.9496306250 -4.1252050000 -3.2862850560
3.9671934375 -4.6399015625 -2.3782721440
5.1441437500 -4.2797631250 -3.2113318320
5.0549053125 -4.8563259375 -2.4230601600
6.2613912500 -4.2844125000 -3.1748071920
6.1717900000 -4.8833756250 -2.4538729680
3.4413706250 -2.8802340625 -4.0050822000
2.8169300000 -2.8258121875 -3.2834097120
6.1535284375 -3.1804815625 -3.2392433920
3.9205787500 -3.5869525000 -2.4547407520
3.9949015625 -2.9870487500 -3.1839383520
5.0381890625 -3.7199300000 -2.4507644880
5.0784881250 -3.1154978125 -3.1968255920
6.2406571875 -3.7007143750 -2.4013008000
4.4782215625 -3.6506731250 -4.9102456720
3.9642237500 -2.3916868750 -5.5849982448
5.6832562500 -2.5863693750 -4.8070441360
6.2164562500 -2.6858740625 -5.7025259880
2.8546356250 -3.3408178125 -2.3750730000
3.9011078125 -2.4040090625 -2.4274897440
5.0708959375 -2.5556512500 -2.3902268400
6.2142928125 -2.5826875000 -2.4567224080
2.7943415625 -2.2822250000 -2.4681201680
5.0640831250 -5.4115123750 -6.4632318925
2.8199668750 -5.0012762500 -6.4297664113
2.8511553125 -4.4561840625 -5.6104864856
2.8182737500 -3.3902812500 -5.6991843720
3.9922140625 -4.1072121875 -6.4559253066
5.1139362500 -3.6916037500 -5.5881222672
2.7517715625 -2.2565056250 -5.6637956224
3.9412590625 -6.2987031563 -6.4455624114
5.1293356250 -4.2389803125 -6.4062707062
5.0192018750 -3.1672590625 -6.4572105336
2.8984956250 -2.8039090625 -6.4697566309
-3.9423071875 -2.2031318750 -5.6420414432
-3.8985009375 -2.1598496875 -2.4709178000
-6.6988979750 -2.0317365625 -4.0165188160
-5.5989372813 -1.9711737500 -4.1397182400
-3.8537675000 -1.6487543750 -6.4711671296
-4.4388900000 -1.8309400000 -4.0657364160
-3.3298125000 -2.1140681250 -4.9054793360
-2.7502800000 -1.4498525000 -6.4411136585
-3.3069015625 -1.5880168750 -4.0337967840
-6.6860622063 -1.5061825000 -4.8988867680
-6.1395816563 -0.9253868750 -6.4296041227
-6.0990071250 -1.4886465625 -5.6555076376
-5.5541648750 -1.3511540625 -4.8451877760
-5.6052623125 -0.8133046875 -4.0286418880
-4.9825846875 -1.2743856250 -5.6644199088
-4.4414431250 -1.1846500000 -4.7896884560
-4.5155643750 -0.5949990625 -4.0746085360
-3.9345000000 -1.0712240625 -5.7002321888
-3.3830653125 -1.0380468750 -4.8483998720
-3.3271921875 -0.4784556250 -4.0415291280
-2.8305018750 -0.8844293750 -5.6687419912
-6.6579950313 -0.3874971875 -4.8112276320
-6.1268845625 0.2816365625 -6.4227587317
-6.6869727313 0.1900196875 -4.0499997360
-6.1571404375 -0.3273643750 -5.7025518920
-5.5792446250 -0.2480562500 -4.8982003120
-5.0306909375 0.3897815625 -6.4051265265
-5.5712076563 0.2773365625 -4.0252096080
-4.9871668750 -0.1904228125 -5.6480304480
-4.4209106250 -0.0117309375 -4.8680998640
-4.5004875000 0.5218184375 -4.0348847520
-3.8419156250 0.0075384375 -5.6394782424
-3.3022656250 0.1059546875 -4.7832513120
-3.4131384375 0.7065437500 -4.0680548240
-2.7841693750 0.2464840625 -5.6751739544
-6.6826486781 1.2956975000 -4.0421378720
-6.1725962500 0.8354362500 -5.6246274792
-5.5816862188 0.8238934375 -4.8691878320
-5.0318062500 1.5717037500 -6.4603120195
-5.5946144375 1.3955246875 -4.0979350880
-5.0328275000 1.0053131250 -5.6788018096
-4.4577025000 1.0757659375 -4.9121496160
-3.8974125000 1.6781690625 -6.4132662109
-4.4799012500 1.5862028125 -4.0262198640
-3.8516846875 1.1021168750 -5.6609720864
-3.3183234375 1.2769790625 -4.8503426720
-2.7298550000 1.2942596875 -5.6449129016
-6.0988270625 -2.0436018750 -3.2496438480
-5.0312418750 -1.8890168750 -3.3137432960
-3.9043865625 -1.6171090625 -3.2659115600
-2.7784046875 -1.4940753125 -3.1822804960
-6.1199467813 -0.9116806250 -3.2379481920
-6.1145959688 -1.5236646875 -2.4528627120
-5.0113006250 -0.8100393750 -3.2254754160
-4.9966268750 -1.3464240625 -2.4107039520
-3.9263031250 -0.5374596875 -3.2950276560
-3.9023440625 -1.0643440625 -2.4003164480
-2.7763084375 -0.3123412500 -3.2402536480
-2.8159490625 -0.8942387500 -2.4611908480
-6.1273790625 0.2318103125 -3.2374948720
-6.2516383125 -0.3571956250 -2.4264535840
-5.0286215625 0.4008406250 -3.1906604400
-5.0684637500 -0.2050025000 -2.4795697360
-3.9173000000 0.5361428125 -3.2145568800
-3.9143168750 -0.0245637500 -2.4024923840
-6.1153686250 1.3602378125 -3.2311872480
-6.1693846875 0.8135868750 -2.4326057840
-5.0627125000 1.5643668750 -3.2353059840
-5.0178178125 1.0074228125 -2.4347946720
-2.7990446875 1.8302143750 -3.2299956640
-3.8765978125 1.1212787500 -2.4637812480
-2.8061934375 0.7583721875 -3.2949369920
-2.7628037500 1.2607465625 -2.4093698960
-2.7759590625 -2.0419490625 -5.6722623448
-6.1488978750 1.9180687500 -5.6156180680
-5.5898602500 2.0161490625 -4.8118234240
-4.4815271875 2.1453640625 -4.8456281440
-3.3799612500 1.8271506250 -4.0183580000
-6.1591063438 1.9385743750 -2.4000574080
-5.0479850000 2.1224934375 -2.3756040320
-3.9445378125 1.7074225000 -3.2042470880
-2.7359018750 -2.0943150000 -2.4557380560
-2.7998509375 0.2105118750 -2.3952910720
-2.2452853125 -0.8644746875 -4.9087950480
-2.2761512500 2.0100618750 -4.0757871680
-5.0601325000 2.1342109375 -5.6598038160
-2.2053893750 -1.9413021875 -4.8549147280
-2.1811615625 -0.3489181250 -4.0118301920
1.7131468750 -1.5545171875 -3.2594096560
-1.6644628125 0.9818109375 -3.2712866400
-1.6484587500 -1.3212959375 -6.4410328380
-2.2209768750 -1.3830546875 -4.0176326880
-1.6521137500 -1.9194125000 -5.6797019736
-1.1372156250 -1.2283084375 -4.0181637200
-0.5374596875 -1.8125709375 -5.6337845432
-0.5309021875 -1.2529931250 -3.2484393120
-1.1034606250 -1.7779021875 -4.8458224240
0.0450425000 -1.8278493750 -4.8789018320
0.0037221875 -1.2827034375 -4.0731449600
0.6182325000 -1.8941096875 -5.6519808080
1.1851606250 -1.9931843750 -4.8245681920
1.7671387500 -1.5082653125 -6.4564650165
1.1570493750 -1.4321284375 -4.0376176240
1.6754546875 -2.1100100000 -5.7271114744
-1.6663709375 -0.1954484375 -6.4430147530
-1.6605256250 -0.7529837500 -5.6539508072
-1.0766528125 -0.6886987500 -4.8820362160
-0.5425525000 -0.1577293750 -3.2510167600
-0.5073193750 -0.6863740625 -5.6786722896
0.0172403125 -0.6705178125 -4.7879787920
0.5386153125 -0.8151321875 -5.6993903088
0.0247115625 -0.0833931250 -4.0390423440
1.0892168750 -0.8645956250 -4.8469881040
1.6890400000 -0.3709287500 -6.4355536239
1.1980337500 -0.3138059375 -4.0353510240
1.6507028125 -0.9524634375 -5.6566474136
-2.2280853125 0.2259650000 -4.8406157200
-2.2196600000 0.7805306250 -4.0441972400
-1.6897521875 0.4007331250 -5.6856482368
-1.1344878125 -0.1552971875 -4.0232409040
-0.4986253125 1.0282912500 -6.4295757578
-1.1199618750 0.3999940625 -4.8661570640
-0.5812390625 0.4212118750 -5.6966030384
-0.0195515625 0.4433971875 -4.8790831600
0.5569306250 0.8933250000 -6.4494498247
0.0339296875 1.0039156250 -4.0374881040
0.5575353125 0.3235078125 -5.6484203032
1.1341115625 0.2169887500 -4.8966590240
1.7506912500 0.1861765625 -5.6237532192
1.1095612500 0.7770100000 -4.0777429200
-2.2108181250 1.3860646875 -4.7665043760
-1.6973175000 1.5021109375 -5.6722183080
-1.0487700000 0.9248090625 -4.0088512320
-1.1408303125 1.4863487500 -4.8328315680
-0.5941256250 1.5979337500 -5.6513591120
0.0018006250 1.5272793750 -4.9244022080
0.0087075000 2.0445290625 -4.0447282720
0.6116615625 1.4616103125 -5.6503216568
1.1508412500 1.3646050000 -4.8104893680
1.6804131250 1.2549953125 -5.6901361048
-1.6643687500 -1.4329481250 -3.1748849040
-0.5040406250 -0.6882015625 -2.4138901440
0.5742918750 -1.3137709375 -3.2741490320
0.5944750000 -1.8422275000 -2.4308184080
1.6741915625 -0.9724046875 -2.4846598720
-1.6427881250 -0.8416309375 -2.4996712400
-0.5287925000 0.4112681250 -2.4386932240
-0.5219528125 0.9977881250 -3.1906474880
0.6050503125 -0.2384484375 -3.2807804560
1.7443084375 -0.3760081250 -3.1866712240
-1.6871721875 1.5110871875 -2.3956666800
-1.6582143750 -0.1801700000 -3.1429323200
-0.5421493750 2.1803687500 -3.2272109840
-1.6789753125 0.4232543750 -2.4516063680
-0.6007100000 1.6009303125 -2.4748811120
0.5998768750 0.9214496875 -3.2009054720
1.6904509375 0.7462381250 -3.2626994640
1.6728881250 0.2115062500 -2.4214282080
-1.6792709375 2.0369906250 -3.3053504000
0.5740096875 2.0413443750 -3.2341014480
1.1317465625 1.9593218750 -4.0587682400
1.7166137500 1.2743453125 -2.3653201440
1.6750246875 1.7913396875 -3.2546562720
-1.6397378125 -2.0901762500 -2.3904081680
-0.5650334375 -1.7863006250 -2.4311551600
1.7386915625 -2.0750859375 -2.3947211840
0.5874471875 -0.7630484375 -2.4069737760
0.5596853125 0.3215728125 -2.4620974880
0.5655171875 1.4891975000 -2.4210655520
-1.0927643750 2.0660425000 -4.0553489120
0.6287137500 -0.2190715625 -6.4600319973
2.2295365625 -1.0704850000 -4.9244928720
2.2233418750 -2.1473528125 -4.8192449200
2.2336350000 1.2202593750 -4.8335957360
1.7213975000 1.8471456250 -6.4643285642
-0.5560303125 -1.2710531250 -6.4712214632
6.7119506250 -0.9830606250 -4.0472150560
6.6914450000 0.7349640625 -4.8632687680
2.3242709375 -1.5792690625 -4.0114416320
2.2675243750 1.7883028125 -4.0371384000
2.3003925000 0.0573512500 -4.8181958080
2.8550925000 -1.6583218750 -6.4095052091
2.8648481250 -1.6711815625 -3.1863992320
3.3762121875 -0.0496650000 -4.8339713440
4.4626340625 -1.9774625000 -4.0689485120
5.0374096875 -2.0352437500 -6.4531486569
6.1631362500 -2.0622665625 -6.4299429470
5.6309171875 -2.0465984375 -3.9678970080
2.8355543750 -0.5291418750 -3.2223669360
2.8640418750 -1.1015256250 -5.6056929504
3.9094256250 -0.7947743750 -3.2557183360
3.4280406250 -1.2068890625 -4.8266793680
3.9599103125 -1.3144159375 -5.6780609552
4.5186684375 -1.3661368750 -4.7896366480
5.0127921875 -1.4635453125 -5.6836031160
5.5819643750 -1.5334068750 -4.8764409520
6.1637140625 -0.9446831250 -6.4576291422
6.2033950000 -0.8322515625 -3.1474914240
6.1702312500 -1.5031187500 -5.6396181240
2.2529446875 -0.5408459375 -4.0669150480
2.8478228125 0.5633134375 -6.4744053627
2.2511843750 0.6375018750 -4.0662285920
2.8292656250 -0.0251550000 -5.7042395376
3.3680153125 -0.6341156250 -4.0615788240
3.9476553125 0.3997925000 -6.4301969358
3.4091206250 0.4982087500 -4.0035409120
3.9101512500 -0.2015625000 -5.6945928880
4.4760850000 -0.2662103125 -4.8957264800
4.4827231250 0.2709403125 -4.0537817200
6.1951309375 -0.3883571875 -5.6221445808
5.6288746875 -0.4210103125 -4.8210322960
5.6533443750 -0.9877771875 -4.0385890240
2.7742659375 1.1121681250 -5.6669079880
3.3579775000 1.0140340625 -4.9190400800
3.3282806250 1.5448825000 -4.0578875040
3.9695584375 0.9717328125 -5.6424300032
4.5123796875 0.8517090625 -4.8366394560
5.0612612500 0.7613150000 -5.6972402768
4.4567215625 1.4144043750 -4.0443526640
5.0753034375 -0.3228090625 -5.6163641032
5.5824884375 0.7554159375 -4.7999334880
6.2354031250 1.2372846875 -6.4560815078
6.2040131250 1.1933575000 -3.1904273040
6.1160646875 0.6676825000 -5.6600486088
3.3700846875 -1.8122350000 -4.0848406160
5.0202634375 -2.0227200000 -3.2580885520
6.1982887500 -2.0121446875 -3.1701056160
2.8549581250 0.0060468750 -2.3655144240
2.7939250000 -1.0937587500 -2.4220499040
3.9298775000 -1.8459765625 -3.2287004640
3.9845412500 -1.3027253125 -2.3640767520
4.5262337500 -0.7957553125 -4.0109365040
5.0701031250 -1.4910787500 -2.4240704160
5.0553084375 -0.9144487500 -3.2339330720
6.1703253125 -1.3677762500 -2.4514898000
2.8013962500 1.6777659375 -3.1907511040
2.7858490625 0.5225440625 -3.2571301040
3.9349165625 0.3549246875 -3.1816847040
4.0125181250 -0.2359893750 -2.4445993360
5.0283796875 0.2317700000 -3.2468591680
5.1995196875 -0.3518609375 -2.4586393040
5.6124675000 0.1554718750 -4.0691168880
6.1707821875 0.1013993750 -3.2259805440
3.9083909375 1.5402331250 -3.2369897440
3.9443093750 0.9659143750 -2.4642604720
5.6638390625 1.3096993750 -3.9892807600
5.0415215625 1.8618731250 -2.4561266160
6.1608384375 0.5184456250 -2.4172965200
6.7020068750 1.8673153125 -4.8507182800
3.4130846875 2.1305559375 -4.8206825920
3.9523584375 2.0520406250 -5.6978464304
4.4895628125 1.9989221875 -4.8056323680
5.0080487500 1.8758884375 -5.7020234504
5.5633400000 1.8286153125 -4.8852094560
6.1537434375 1.8047368750 -5.6612466688
3.9519150000 2.0794396875 -2.3866132320
5.0334187500 1.2976056250 -3.2865570480
6.1635259375 1.7464718750 -2.4582636960
2.8200743750 1.0865159375 -2.4515934160
5.0864834375 0.7970184375 -2.4089683840
2.7940190625 1.6989300000 -6.4420919230
5.1004987500 -0.8809221875 -6.4449769810
-5.0827343750 6.6405706250 -2.4033213120
-3.9632696875 2.2939962500 -5.7005935496
-5.6325982188 6.5233418750 -4.8879164240
-5.0249128125 6.6009300000 -5.6080489192
-4.4438215625 6.6733984375 -4.8707420720
-3.4010446875 6.2883737500 -3.9961194160
-6.2079476250 6.4002140625 -5.6565476832
-3.9167087500 2.8579815625 -3.2336740320
-6.1439663125 2.4515240625 -3.2637097200
-5.5727556563 2.5931687500 -4.0421508240
-3.8970093750 2.8744156250 -6.4471855561
-4.4486321875 2.7392612500 -4.0760073520
-3.3884806250 2.3497081250 -4.9112818320
-2.7835646875 2.9707490625 -6.4025176051
-2.7821537500 2.3940921875 -5.6502918672
-6.1649005938 3.0031737500 -5.7071265384
-5.6432770000 3.1704437500 -4.8278061920
-5.5769387500 3.7136412500 -3.9628457280
-5.0748465625 3.1917153125 -5.6311358592
-4.5150268750 3.3069015625 -4.8365746960
-3.8830612500 3.9403587500 -3.2353189360
-3.9532453125 3.4338187500 -5.6348336552
-3.3641318750 3.4321121875 -4.8603545680
-3.3552362500 4.0194518750 -4.0852939360
-2.8301793750 3.5913868750 -5.6882956256
-6.6867254813 4.0688615625 -4.8761042000
-6.1201765625 5.3069659375 -5.6235680056
-6.6985508844 4.6411781250 -4.0622005200
-6.1396327188 3.5949746875 -6.4707679101
-6.1289673750 4.1683662500 -5.6930813896
-5.6313176250 4.8024818750 -4.0352992160
-5.5855562188 4.2420843750 -4.8450323520
-4.4599465625 3.8836793750 -4.0486138720
-3.9098556250 5.6185950000 -5.7002140560
-4.5090471875 4.4547193750 -4.8356032960
-5.0419650000 4.3276543750 -5.6941369776
-3.3695740625 4.6053537500 -4.8312643760
-3.3431425000 5.1760578125 -4.0386149280
-2.8261750000 4.7116175000 -5.6512684480
-6.6763915063 5.7423006250 -4.0783257600
-5.5433087188 5.3573028125 -4.8664679120
-5.6040515938 5.9392540625 -4.0980646080
-4.9947725000 5.4869746875 -5.6886362632
-4.4384600000 5.5445812500 -4.8409006640
-4.5441593750 6.1025062500 -4.0525642320
-3.3750431250 5.7495031250 -4.8302800240
-2.8084106250 6.3580471875 -3.2544878960
-2.8102112500 5.7828818750 -5.6529794072
-6.1269745938 3.0257890625 -2.4319063760
-4.9996234375 2.6438818750 -3.2595521280
-3.8965525000 2.2867534375 -2.4462960480
-3.3389096875 2.8923143750 -4.0360374800
-2.8005496875 3.0102284375 -3.1956469600
-6.1905971250 3.5778553125 -3.2382201840
-4.9941543750 3.7816618750 -3.2104122400
-5.1119743750 3.1831287500 -2.4385766560
-3.9815850000 3.3917325000 -2.3932576080
-2.8235143750 3.5807846875 -2.4183715360
-2.8021218750 4.1390725000 -3.2395930960
-6.1744519688 4.7582993750 -3.1989108640
-6.0980235000 4.1630987500 -2.4544040000
-4.4911215625 4.9934287500 -3.9942413760
-5.0728175000 4.9291303125 -3.2411861920
-3.9086462500 5.0675500000 -3.2457064400
-3.9595609375 4.5157390625 -2.4531088000
-2.7620512500 5.2120971875 -3.2633211600
-2.8400156250 4.6808456250 -2.3883488000
-6.2008727813 6.4315234375 -2.4361287280
-6.1275483750 5.8591531250 -3.2211494480
-5.0794287500 6.0377509375 -3.1856480160
-4.9902575000 5.4856443750 -2.3911334800
-3.9920931250 6.2139031250 -3.2416136080
-3.8738296875 5.6550912500 -2.4601935440
-2.8067040625 5.7786625000 -2.4632631680
-2.2726037500 5.9150128125 -4.8375072400
-6.6983534875 2.9728721875 -4.8152945600
-2.7699928125 2.4015634375 -2.4707882800
-5.0547843750 4.3639490625 -2.4300153840
-6.1803470000 5.3034990625 -2.3724566960
-5.0508203125 4.9014221875 -6.4659341848
-3.9375906250 4.5051906250 -5.6322186464
-6.2144097188 4.7521853125 -6.4528181218
-2.2587362500 3.1075025000 -4.0392884320
-2.2458631250 3.6530112500 -4.9095462640
-2.2474756250 4.7441228125 -4.8346189440
-5.0021765625 3.7498687500 -6.4758828392
-2.7895309375 4.1551437500 -6.4634786670
-6.1568515313 5.8466965625 -6.4593246886
-5.0850321875 6.0715462500 -6.4569881478
-2.2386875000 6.4738112500 -4.0135916640
-2.2319150000 4.1750043750 -4.0410240000
-1.6333012500 6.5162871875 -3.2410048640
1.0943500000 2.5037287500 -4.8728014400
-2.2246587500 2.5608650000 -4.8790184000
-1.6117340625 2.5741412500 -5.6227520296
-1.0824578125 2.6587571875 -4.8062281600
-0.5532621875 4.3588159375 -6.4463168654
-1.1647221875 3.2537428125 -4.0747121520
-0.5338718750 2.7192125000 -5.6725019568
0.0102393750 2.6434115625 -4.8148023840
0.6119437500 3.1522493750 -6.4580386845
0.0153590625 3.2137125000 -4.0401562160
0.5214959375 2.5631225000 -5.7063105624
1.6649868750 2.3926543750 -5.6476250504
1.1424428125 3.5749931250 -4.9118258160
-1.6509446875 3.6853821875 -5.6554571248
-1.1045221875 3.8355193750 -4.8313550400
-1.1230659375 4.3936056250 -4.0157676000
-0.5518512500 3.7662356250 -5.6579711080
-0.0151978125 4.3460503125 -4.0433553600
0.0045687500 3.7697025000 -4.8370927760
0.5588253125 3.7065193750 -5.6558897216
1.0851587500 4.1191178125 -4.0674590320
1.7409356250 3.5477150000 -5.6589412128
-2.2066928125 5.3410434375 -4.0764088640
-1.7237893750 4.8642137500 -5.6761621920
-1.1385459375 4.9078856250 -4.8945996560
-0.5741709375 5.4663212500 -6.4339426542
-1.1225418750 6.0164928125 -4.8654965120
-0.5457371875 4.9100625000 -5.6314635448
0.0373965625 4.8810643750 -4.8876703360
-0.0480793750 5.4179596875 -4.0450132160
0.6216590625 4.8153146875 -5.6579115288
1.1470250000 4.7204190625 -4.7961385520
1.1414753125 5.3081618750 -4.0529916480
1.6559300000 4.6223387500 -5.7259639272
-1.6897387500 5.9947106250 -5.6361599400
-1.1173415625 6.5939962500 -4.0927801920
-0.5465837500 6.0616965625 -5.6607441312
0.0145125000 6.0030956250 -4.8332201280
0.6098609375 6.5172546875 -6.4426409583
0.0228840625 6.5641784375 -4.0438216320
0.5325415625 5.9073400000 -5.7183598080
1.0725543750 5.8782478125 -4.8387376800
1.6797278125 6.3327981250 -6.4311448926
1.1581378125 6.4469496875 -4.0246138160
1.6224706250 5.7533059375 -5.6495743264
-1.6849818750 3.1296206250 -3.2184942880
-1.6716921875 2.5617250000 -2.4208712720
-0.5854046875 3.2421059375 -3.2898857120
-0.5668340625 2.7209593750 -2.3928172400
1.1372290625 3.0557412500 -4.0251059920
0.5645765625 2.5837625000 -2.3990342000
1.6868631250 2.9730065625 -3.1793274400
-1.6940656250 4.2943562500 -3.2165903440
-1.6721759375 3.7087231250 -2.4526943360
-0.5593896875 4.3272781250 -3.2127176960
-0.5514346875 3.7672165625 -2.4033472160
0.5654634375 4.2734475000 -3.2178337360
0.5465568750 3.7028509375 -2.4516581760
1.6650137500 4.1113643750 -3.2681652080
1.6889190625 3.5617840625 -2.4380326720
-1.1069812500 5.4640771875 -4.0447023680
-1.6674056250 5.4204859375 -3.2259157840
-0.5578040625 5.5367875000 -3.1840160640
-0.5518109375 4.9292243750 -2.4841029360
0.5624400000 5.3697593750 -3.2901058960
0.5890328125 4.8451862500 -2.4222830400
1.7048425000 5.1658184375 -3.2817518560
1.6999646875 4.6407481250 -2.3936073120
-1.7216528125 5.9765565625 -2.4107687120
-0.5634075000 6.6308284375 -3.2671031440
-0.5524156250 6.1067256250 -2.4017541200
0.5634343750 6.4480515625 -3.2405904000
0.5825559375 5.9088315625 -2.4079322240
1.7074090625 6.3396646875 -3.1857775360
1.6506759375 5.7245765625 -2.4782486320
2.1925700000 2.8421790625 -4.0677569280
2.1946528125 4.5726065625 -4.8261612880
2.2163678125 5.6488025000 -4.9353207440
2.1968565625 6.1844615625 -4.0856306880
0.5564200000 3.1272018750 -3.2281176240
1.6884756250 2.3669350000 -2.4644936080
-1.6894565625 4.8533696875 -2.4137606240
-1.7194221875 3.1226196875 -6.4606885342
1.6603509375 2.9669865625 -6.4400300942
-1.6584025000 4.2773846875 -6.4097572550
-1.6567228125 5.4517953125 -6.4492649997
6.6827106250 6.3403768750 -4.8198148080
2.8261346875 6.6907462500 -5.6973918152
3.3677196875 6.6650537500 -4.8049977200
3.8887721875 6.5405150000 -5.6848089472
4.4514406250 6.4407415625 -4.8936282560
5.0605356250 6.3840084375 -5.6295013168
5.6208659375 6.3224378125 -4.8381418880
6.1495106250 6.3016634375 -5.6933507912
3.9235484375 6.4919787500 -2.4485367440
5.0471653125 6.3582756250 -2.4721093840
6.1817471875 6.3137303125 -2.4071421520
6.7040896875 2.3997628125 -4.0218032320
6.6981503125 3.5493678125 -4.0149645760
6.7124478125 5.1893878125 -4.8962963680