ITEM: TIMESTEP
163000
# source: voids-relax.163000.cfg
ITEM: NUMBER OF ATOMS
2298
ITEM: BOX BOUNDS pp pp pp
-6.7187500000 6.7187500000
-6.7187500000 6.7187500000
-6.4760000000 6.4760000000
ITEM: ATOMS x y z
-6.6465801438 -5.9711103438 -4.8581397760
-5.5694755625 -6.4871385625 -4.0373197280
-4.4364578125 -5.7756887813 -4.8457576640
-4.3936459375 -6.3110481875 -4.0121410400
-3.3205675000 -6.0669613750 -4.1245773520
-3.3116718750 -6.6577884969 -4.9091447520
-6.0744541250 -5.9851673125 -5.6751869064
-5.5345783750 -5.9120149063 -4.8192837760
-5.5812253125 -4.7921081250 -4.8981744080
-4.9961296875 -5.7821078750 -5.6848866592
-4.4602421875 -5.1797665625 -4.1050586880
-3.9157681250 -5.0653328125 -3.2823865040
-3.3063103125 -5.5080809688 -4.9649160640
-2.6683650000 -5.5395972813 -5.7183144760
-6.0752590313 -4.2635037500 -6.4337562749
-6.6693526750 -4.3420459375 -4.0555172880
-4.4291612500 -4.5830071875 -4.8099194800
-5.0269015625 -4.1444475000 -6.4213289604
-5.5807415625 -4.2481715625 -4.0474481920
-3.9062409375 -4.5560784375 -5.6533135688
-3.8865281250 -5.6404054063 -5.6831925376
-4.5247556250 -3.9990403125 -4.0605038080
-3.3010159375 -4.4690571875 -4.8304354480
-3.3154478125 -5.0190675000 -4.0269322240
-2.8455921875 -4.2868043750 -5.7918313232
-3.9480181250 -4.0107175000 -3.2425720560
-2.7690253125 -4.8993528125 -6.4040420555
-6.2014398438 -3.6972340625 -5.6355239968
-5.5751770938 -3.7162346875 -4.9191177920
-6.1570087500 -4.8479006250 -5.6804065624
-5.5941105313 -3.1654315625 -4.1078822240
-4.9934153125 -3.5605209375 -5.6597636648
-4.4009559375 -3.4630453125 -4.9258398800
-3.9170178125 -2.8773853125 -6.4308868888
-4.4758565625 -2.9577953125 -4.0115063920
-3.8096521875 -3.4816831250 -5.6923262880
-3.3083125000 -3.2846893750 -4.8297230880
-3.3964490625 -2.7336846875 -4.0274373520
-2.7462218750 -3.3586225000 -5.7887085960
-6.7125585644 -6.5576988750 -4.0857213520
-6.1678366875 -6.5327736563 -3.2639040000
-5.0023109375 -6.3307771250 -3.2775165520
-3.8264221875 -6.1943031875 -3.2228979680
-2.7598206250 -4.9220756250 -3.2418078880
-2.7675203125 -6.0966716875 -3.2070188160
-6.1346944375 -5.4300924063 -3.2242838320
-6.0765839688 -5.9819584375 -2.4239408960
-5.5904326875 -5.3281300000 -4.0468524000
-5.0110184375 -5.8089788438 -2.4015598400
-5.0035471875 -5.2574621875 -3.2599924960
-2.8063681250 -4.3399362500 -2.4768239120
-6.1339835938 -4.2600906250 -3.2177430720
-6.1664324688 -4.8505343750 -2.4615664560
-5.0302609375 -4.1602096875 -3.1860236240
-5.0361600000 -4.7234021875 -2.4061578000
-3.8641546875 -4.5460271875 -2.3895015280
-3.3984915625 -3.8754018750 -4.0692464080
-6.1219610625 -3.1818656250 -3.2443723840
-6.1914719063 -3.7200375000 -2.3809532080
-5.0662196875 -2.9800075000 -3.2376373440
-5.0304087500 -3.5476881250 -2.4516840800
-3.9211296875 -2.8495025000 -3.1787186960
-3.8993475000 -3.4420693750 -2.4484590320
-2.8007512500 -2.7253937500 -3.2359924400
-2.8309318750 -3.7839059375 -3.3035371200
-2.8079671875 -5.4889459688 -2.4654779600
-2.2894946875 -4.2917225000 -4.8972418640
-2.2757212500 -2.6141446875 -4.0977926160
-6.1539100625 -2.6359134375 -5.6519380664
-5.6136217813 -2.5461912500 -4.7906339520
-5.1174971875 -2.4414862500 -5.6806189752
-4.5300500000 -2.4229693750 -4.8659239280
-3.9990537500 -2.2806393750 -5.6967817760
-6.1923171250 -2.6319090625 -2.3961070480
-5.0452571875 -2.4432868750 -2.3826240160
-3.9299178125 -2.2484565625 -2.4597272720
-2.7336578125 -6.5636086875 -5.6550970592
-3.9428312500 -5.6162340313 -2.4517617920
-2.7647253125 -3.2709293750 -2.3955889680
-4.9700340625 -4.7370278125 -5.6493476664
-2.2443850000 -3.2036075000 -4.8411467520
-2.2772396875 -5.9074448125 -4.1099934000
-6.7028003594 -5.4426201875 -4.0150293360
-6.7148644797 -4.8948781250 -4.8613130160
-6.6924971563 -3.1907746875 -4.0894903840
-3.3982228125 -2.2460243750 -4.9703947600
-2.7350687500 -6.6339404281 -2.3700087680
-6.1704905938 -5.4293614063 -6.4492773041
-2.1866306250 -6.5529299063 -4.7766716960
-2.1825993750 -5.3402103125 -4.9726354560
-2.2062359375 -3.7824278125 -4.0266861360
-1.6223765625 -4.7505996875 -3.2029130320
-0.6318984375 -6.2878765625 -5.7239628432
-2.1791996875 -4.8404831250 -4.0252484640
-1.6927621875 -6.2680226563 -5.7049506024
-1.1489331250 -6.3942814063 -4.8138439360
-1.0872818750 -5.7685682500 -4.0305458320
-0.0832856250 -6.3205915000 -4.8665844800
-0.0341446875 -5.1972756250 -4.9076552720
0.5628834375 -5.7983753125 -6.4367590666
0.0084387500 -5.7436618438 -4.0936220720
1.1162800000 -6.3839210938 -4.9177707840
0.4843546875 -6.3511550938 -5.6328196192
1.0743281250 -5.8294683438 -4.0878195760
1.7114537500 -6.5001917500 -5.6353931816
-1.6905987500 -5.7843210313 -6.4694631386
-1.2483303125 -5.3006906250 -4.9995367600
-0.5317084375 -4.0691571875 -5.6423225016
-1.1027081250 -4.7336818750 -4.1430987120
-1.6668681250 -4.8809434375 -6.3434582984
-0.6454703125 -5.1846443750 -5.6424015088
-0.0373293750 -4.6415140625 -4.0861746720
0.5605050000 -5.2146503125 -5.6488399480
1.1412871875 -5.2669893750 -4.8667787600
1.6967531250 -4.7890578125 -6.4599768218
1.1180403125 -4.7111606250 -4.0312970480
-1.6671368750 -4.3164878125 -5.6379913528
-1.1279034375 -4.0926459375 -4.8395795600
-1.0862606250 -3.5773312500 -4.0399619360
0.0271840625 -4.0670475000 -4.8611187360
1.1693312500 -3.5966140625 -4.0364778480
0.0394525000 -3.4927556250 -4.0633791520
0.5145487500 -4.6692759375 -6.4593779213
0.5823678125 -4.0874187500 -5.7017605248
1.0851318750 -3.0520190625 -4.8817512720
1.1309000000 -4.1668612500 -4.8450841600
-1.6749709375 -3.1028396875 -5.6723439424
-1.1530853125 -2.9938212500 -4.8386340640
-0.5284162500 -2.3965512500 -6.4512598667
-1.1127459375 -2.4467671875 -4.0282144720
-0.5789412500 -2.9692709375 -5.6769380168
0.5786993750 -2.3966453125 -6.4384669173
-0.0448140625 -2.9279237500 -4.8597846800
0.5313993750 -2.9911740625 -5.6724125880
1.1210503125 -2.4941343750 -4.0716684320
1.6840278125 -2.5564306250 -3.2293092080
1.6749171875 -3.1001790625 -5.6595926984
-1.7017653125 -5.8843753125 -3.3089899120
-0.5327028125 -5.7122987188 -3.2355002640
-0.5762671875 -6.2848410313 -2.4530828960
0.5503596875 -5.7669409688 -3.2151526720
0.5658934375 -6.3170211563 -2.3871960720
1.6260853125 -5.9462953125 -3.2389454960
1.7682271875 -6.4882081875 -2.4105614800
-1.6581471875 -5.3430859375 -2.4373073600
-0.5989631250 -4.5984200000 -3.2232088160
-0.5068625000 -5.1725640625 -2.4121675280
0.5032209375 -4.6608371875 -3.2889402160
0.6103312500 -5.1942253125 -2.4178405040
1.6854521875 -4.8312650000 -3.2580756000
1.7031090625 -5.3835758125 -2.4474358240
-1.6594103125 -3.6079687500 -3.2509001920
-1.7271756250 -4.1785115625 -2.4504795440
-0.5298406250 -3.5425818750 -3.2476233360
-0.5197221875 -4.0664159375 -2.3655532800
0.5887909375 -3.5492737500 -3.2458618640
0.5956037500 -4.1295856250 -2.4521633040
1.7307231250 -3.6653468750 -3.2405385920
1.6756025000 -4.2487090625 -2.4935838000
-1.6645165625 -3.0654296875 -2.4349889520
0.0271706250 -2.3910553125 -4.0188890320
-0.5963428125 -2.9640571875 -2.4617866400
0.5969071875 -2.4003540625 -3.2138056640
0.5231756250 -2.9859871875 -2.4573700080
2.2001353125 -6.0069266563 -4.0294060560
1.6996421875 -5.3643171875 -5.6933365440
2.2167306250 -3.2251343750 -4.8714414800
-1.7187100000 -2.5165884375 -3.2884091840
-0.5482365625 -2.3932321875 -3.2443205760
1.6591415625 -3.1244740625 -2.4051604960
-1.6202265625 -6.4064705625 -2.4398200480
1.6826168750 -4.2323556250 -5.6839424584
2.2389696875 -4.3428521875 -4.8829169520
2.2120006250 -2.6464887500 -4.1034914960
-1.6931921875 -3.7029046875 -6.4263406073
1.7171781250 -3.6625653125 -6.4630385450
1.6638581250 -2.5415956250 -6.4601977829
1.6537262500 -5.9446438438 -6.4395302765
2.2577150000 -4.8872053125 -4.0196402480
6.2254593750 -6.0056030625 -5.6495043856
6.1591050000 -4.8632596875 -5.6862194200
6.6804128125 -3.7773618750 -4.8395795600
2.3144615625 -6.5399089688 -4.8712601520
2.8782050000 -6.5577754688 -5.6784922568
3.3724631250 -6.1620800625 -4.0590661360
4.5431918750 -6.3265483438 -4.0383040800
5.6561125000 -6.4764691875 -4.0483936880
2.8828812500 -4.3964678125 -5.5590502080
2.2452987500 -5.4468906250 -4.8220296000
2.8060725000 -5.4449139688 -5.6444816000
3.3948500000 -5.0053209375 -4.1036598720
3.9090359375 -5.6868561563 -5.6645196392
4.4679956250 -5.7643609688 -4.8397220320
5.0808128125 -4.7546981250 -5.6629938936
4.5332078125 -5.2082003125 -4.0595324080
5.0358106250 -5.8604364063 -5.6276258672
5.6331881250 -5.9375434688 -4.8946903200
5.6046737500 -5.3833070625 -4.0772118880
2.8809462500 -3.8502871875 -3.3178749840
3.3497268750 -4.2160425000 -4.4925177680
3.3678675000 -5.5462716875 -4.8198925200
3.3927134375 -3.3899990625 -4.8089480800
3.8663718750 -4.5867428125 -5.5638709424
4.4923846875 -4.6462575000 -4.9097664480
4.3886606250 -4.1015550000 -4.0437827760
5.6313337500 -4.7951987500 -4.8333366960
5.5539337500 -4.2416275000 -4.0222306480
2.2979603125 -3.7917937500 -4.0391459600
2.8186768750 -3.2640493750 -5.6400416544
3.9446184375 -3.4777325000 -5.6619201728
3.3884000000 -2.2604831250 -4.8184807520
4.4606587500 -3.0236525000 -4.0132808160
4.4347646875 -2.4483662500 -4.8255654960
4.9774784375 -2.4863137500 -5.6928858144
5.5873393750 -3.6837696875 -4.8230916640
6.1208215625 -3.7702265625 -5.6863903864
5.6408071875 -3.1051509375 -4.0153142800
2.8006571875 -6.0615635313 -3.2887977440
2.8834053125 -6.6136010250 -2.4433688960
3.9467818750 -6.2332504375 -3.2800810480
5.0955940625 -6.4325352813 -3.2217193360
6.2024543750 -6.5462823750 -3.1814515680
2.7888456250 -5.5149072188 -2.4569684960
3.9477359375 -5.1526228125 -3.2311872480
3.8984606250 -5.6739588438 -2.4226197920
5.0489793750 -5.3214650000 -3.2012810800
5.0357568750 -5.8788928125 -2.4020131600
6.1367853125 -5.4293520000 -3.2461338560
6.2336696875 -5.9661922188 -2.4083337360
2.7507906250 -4.3659109375 -2.4405324080
2.8513971875 -4.9651562500 -3.2287522720
3.8192062500 -4.0360471875 -3.2829822960
3.9395390625 -4.5708865625 -2.4069478720
4.9758659375 -4.1943678125 -3.2606789520
5.0817265625 -4.7423490625 -2.4399366160
6.1659312500 -4.3065709375 -3.3028895200
6.1929675000 -4.8529262500 -2.4556603440
3.2856031250 -2.8993825000 -4.0430445120
2.7310106250 -2.7368962500 -3.2078088880
6.2210787500 -3.2231725000 -3.2343993440
3.9759143750 -3.4809575000 -2.4406101200
3.8642890625 -2.9343603125 -3.2807804560
5.0264178125 -3.6199415625 -2.5116129840
5.0568403125 -3.0339456250 -3.2715974880
6.1063896875 -3.7793775000 -2.4393537760
6.7018725000 -2.6063240625 -4.8783578480
4.5369165625 -3.5379056250 -4.8668176160
3.9094659375 -2.3686550000 -5.7084217384
5.5411143750 -2.5954128125 -4.8902607360
6.1298112500 -2.6458840625 -5.6467041632
2.8067712500 -3.3133112500 -2.3947341360
3.9156337500 -2.3647581250 -2.4889858400
4.9939125000 -2.4897671875 -2.4368151840
6.1307384375 -2.6543631250 -2.4497801360
3.9604881250 -5.1108456250 -6.4573849970
2.7920437500 -3.8522490625 -6.4154078241
5.0499334375 -3.6417775000 -5.7250171360
6.2084743750 -3.1939593750 -6.4655349912
5.0920196875 -6.4240508438 -6.4252904591
2.8130062500 -6.0040456563 -6.4704196049
5.0653059375 -3.0567356250 -6.4755786624
6.1464737500 -5.4451101563 -6.4623485920
6.1745178125 -6.5503848438 -6.4577362553
5.0317256250 -5.3128246875 -6.4594522658
3.9030965625 -4.0522259375 -6.4504898703
-2.7651284375 -2.2321837500 -5.6517955944
-5.5973825625 -1.9419875000 -4.0529786960
-3.8788015625 -1.7104325000 -6.4634057472
-4.4395081250 -1.8417437500 -4.0935184560
-2.8058843750 -1.6234784375 -6.4004382910
-3.3373509375 -1.7164390625 -4.0451427360
-6.6849241844 -1.5178059375 -4.8554457600
-6.1358514063 -0.9300631250 -6.4546228535
-6.1429746250 -1.5172953125 -5.7150803616
-5.6249791563 -1.3763896875 -4.8516637760
-5.6020359688 -0.8400453125 -3.9776757680
-5.0418843750 -1.3952559375 -5.6583765056
-4.5120303125 -1.2459384375 -4.8073938400
-4.4772137500 -0.6469618750 -4.0781573840
-3.9642237500 -1.1453856250 -5.6479112896
-3.3716837500 -1.1755528125 -4.8704830320
-3.3357250000 -0.5816421875 -4.1089960960
-2.8343181250 -1.0085246875 -5.6950539792
-6.6981558219 -0.4317737500 -4.8323134880
-6.1747785000 -0.3400493750 -5.6953816648
-5.5883552500 -0.3237496875 -4.9005187200
-5.0323975000 0.3402778125 -6.4102715790
-5.6410221875 0.2085096875 -4.0420601600
-5.0186643750 -0.2559440625 -5.6998578760
-4.4929490625 -0.0714203125 -4.8610798800
-3.9215328125 0.4391375000 -6.4750878399
-4.5113718750 0.4503578125 -3.9887497280
-3.8887050000 -0.1111550000 -5.6441500288
-3.3744921875 0.0303284375 -4.7950635360
-3.3752984375 0.6344784375 -4.0610089360
-2.8294537500 0.1189353125 -5.6517023400
-6.6767844188 1.2464893750 -4.0566311600
-6.1623205938 0.7869671875 -5.6236884592
-5.5624047500 0.7641503125 -4.8685402320
-5.0701703125 1.5235840625 -6.4680379782
-5.5899959688 1.3373671875 -4.0885189840
-5.0314165625 0.9536862500 -5.6933158208
-4.4510778125 0.9780215625 -4.8921387760
-3.9084446875 1.6183587500 -6.4187139516
-4.5012937500 1.5182762500 -4.0325792960
-3.8923196875 1.0196375000 -5.7003565280
-3.3661475000 1.2036103125 -4.8563264960
-2.7796812500 1.1618196875 -5.6338700264
-6.1452858750 -2.1097546875 -3.2571819120
-5.0085862500 -1.9152334375 -3.2794075440
-3.9334250000 -1.6659275000 -3.2365364240
-2.8241325000 -1.5589381250 -3.1871504480
-2.7888456250 -2.1567725000 -2.4497283280
-6.1985763125 -0.9404503125 -3.2458748160
-6.1436545625 -1.5231540625 -2.4837661840
-4.9937915625 -0.8150246875 -3.2346972400
-5.0925168750 -1.3817781250 -2.4293159760
-3.8829134375 -0.6276656250 -3.2849769040
-3.9454784375 -1.1525343750 -2.3618231040
-2.8112996875 -0.4003971875 -3.2455251120
-2.8060321875 -0.9692737500 -2.4413613360
-6.1926315625 0.2256425000 -3.1773069280
-6.1171168438 -0.3834256250 -2.4525777680
-5.0978515625 0.3640621875 -3.2279881040
-5.0122950000 -0.2309771875 -2.4848800560
-3.9092106250 0.4563375000 -3.2535812560
-3.9464325000 -0.0932159375 -2.4174389920
-6.1256012813 1.3363325000 -3.2327673920
-6.1714392813 0.7944115625 -2.3895144800
-5.0620943750 1.4951234375 -3.1934580720
-4.9817381250 0.9124331250 -2.4087352480
-2.7911837500 1.7358562500 -3.2411732400
-3.8813278125 1.0374825000 -2.4852556640
-2.7732178125 0.6414256250 -3.2838630320
-2.8269543750 1.1809412500 -2.4191098000
-2.2565996875 -0.9403831250 -4.9308264000
-2.2458631250 1.3277996875 -4.7830958880
-2.2619881250 1.9281200000 -4.0656198480
-6.1648374375 1.9017018750 -5.6124124480
-5.5888040625 1.9211325000 -4.8391780480
-5.0323840625 2.0734465625 -5.6395145080
-4.4410937500 2.0599418750 -4.8690712640
-3.3862231250 1.7294196875 -3.9870530160
-6.1994148125 1.8913012500 -2.3947600400
-5.0834734375 2.0513284375 -2.3906542560
-3.9611465625 1.6443468750 -3.1982373600
-2.8396796875 0.1184650000 -2.3661361200
-2.2791881250 -1.4789715625 -4.0458810000
-2.2610743750 0.1291478125 -4.8392687120
-6.7048049656 0.1578637500 -4.0575378000
-3.9158487500 2.2332050000 -5.7041760728
-3.8801184375 2.2058328125 -2.4051475440
-5.0250875000 -0.8404484375 -6.4752978837
-6.1421576250 0.2383543750 -6.4611522158
-6.1665843125 1.3308231250 -6.4568714502
-2.8008990625 1.7213303125 -6.4517309310
-2.2312565625 -2.0291834375 -4.8567021040
-2.2181550000 -0.4315453125 -4.0210261120
1.6258837500 -1.4643246875 -3.2113188800
-1.6935012500 0.8799815625 -3.2263950080
-1.6684671875 -2.0141468750 -5.6672602824
-1.1618465625 -1.2956706250 -4.0546106480
-0.5984793750 -1.8172203125 -5.6791929600
-0.5759850000 -1.2530737500 -3.2681393040
-1.1278496875 -1.8765065625 -4.8153334160
-0.0311750000 -1.8432218750 -4.8731770480
-0.0107500000 -1.3004946875 -4.0541961840
0.5456431250 -1.8260890625 -5.6546087688
1.1091715625 -1.9288053125 -4.8735138000
1.0941484375 -1.3680181250 -4.0632366800
1.7062937500 -1.9914912500 -5.6285571160
-1.6729687500 -0.2849153125 -6.3976103514
-1.6459862500 -0.8923843750 -5.6542059616
-1.1040653125 -0.7323975000 -4.8618440480
-0.5852837500 -0.1810837500 -3.2059697040
-0.5117403125 -0.7282587500 -5.6481457208
0.0170253125 -0.7057509375 -4.8074326960
0.5714028125 -0.7052000000 -5.6433547760
-0.0539246875 -0.1064250000 -4.0780149120
1.1441762500 -0.7902862500 -4.8451359680
1.0718556250 -0.2430037500 -4.0080093520
1.6980296875 -0.8926128125 -5.6582923176
-1.6522212500 0.8811371875 -6.4696995126
-2.2168112500 0.7169443750 -4.0835195120
-1.7284387500 0.3078396875 -5.6713103728
-1.1507606250 -0.1792965625 -4.0325015840
-0.5498893750 0.9725256250 -6.4124208338
-1.1347162500 0.3547903125 -4.9062435040
-0.5440171875 0.3891500000 -5.6486987712
0.0208818750 0.4725700000 -4.8482574000
-0.0111128125 1.0048696875 -3.9997330240
0.5768450000 0.3662525000 -5.6488878704
1.1257534375 0.3194228125 -4.8140382160
1.6545996875 0.2440250000 -5.7187133976
1.1447540625 0.8937012500 -4.0376435280
2.1767137500 0.1400859375 -4.8321451120
-1.7094650000 1.4153046875 -5.6268785368
-1.1023453125 0.8725775000 -4.0147184880
-1.1116575000 1.4357968750 -4.8277025760
-0.6007771875 1.5805187500 -5.6840939968
-0.0240396875 1.5413081250 -4.8812461440
0.6014356250 2.0825303125 -6.4469247028
0.0340237500 2.0693346875 -4.0081777280
0.5370834375 1.4955803125 -5.7093089504
1.0537956250 1.4565981250 -4.8483480640
1.6294312500 1.3428093750 -5.6441616856
-1.7099487500 -1.4550259375 -3.2268483280
-0.5352156250 -0.7447465625 -2.3761350640
0.5437215625 -1.2838859375 -3.2227036880
0.5106921875 -1.8408971875 -2.4060930400
1.7143696875 -0.8661275000 -2.4699464000
-1.6805340625 -0.8791215625 -2.4569166880
-0.5557212500 0.3989325000 -2.4275026960
-0.5689840625 0.9785187500 -3.1847802320
0.4878887500 -0.1928684375 -3.2468980240
1.6627831250 -0.2994009375 -3.2769207600
-1.6964978125 1.4133562500 -2.3644782640
-1.6865540625 -0.2787206250 -3.1748330960
-0.5571321875 2.1539237500 -3.2552261600
-1.7088065625 0.3115215625 -2.4314271520
-0.5610828125 1.5826956250 -2.4656592880
0.5812525000 0.9280475000 -3.2527523280
1.7319190625 0.8217434375 -3.2573114320
1.6314468750 0.2519128125 -2.4557380560
-1.6755890625 1.9317884375 -3.2707556080
0.6056953125 2.0892356250 -3.2260582560
1.1506934375 2.0112040625 -4.0644023600
1.6363650000 1.3383078125 -2.3711355920
2.2107106250 1.2666456250 -4.8979671760
1.6822003125 1.8981946875 -3.1887176400
2.2092459375 1.8379812500 -4.0971579680
1.7049096875 1.9171550000 -6.4321525582
-1.6453950000 -2.0046062500 -2.3924157280
-0.5891537500 -1.8248259375 -2.4590019600
1.7071403125 -2.0138915625 -2.3808366400
0.6134756250 -0.7343862500 -2.4011324240
0.5756356250 0.3790853125 -2.4407137360
0.5273950000 1.5029440625 -2.4644158960
-1.1155275000 2.0108278125 -4.0578875040
2.1780306250 -1.5188675000 -4.0273725920
-0.5874471875 -0.1662218750 -6.4588489616
0.5622250000 -1.2665515625 -6.4511892783
6.6861371875 0.7036546875 -4.8837199760
2.2542078125 -0.9493728125 -4.8247106640
2.2562368750 -0.4120071875 -3.9907184320
2.8337671875 -2.2006728125 -5.6490381136
6.6945356250 -2.0818987500 -4.0209354480
6.6693671875 -0.9783440625 -4.0198345280
2.2777906250 -2.0692003125 -4.8492288000
3.3533684375 -1.7437171875 -3.9963525520
3.3010965625 -1.1527896875 -4.8176388720
4.5453284375 -1.8822846875 -4.0721347040
5.0970990625 -1.8967434375 -6.4579719817
5.6151550000 -2.0192800000 -4.0904488320
2.8398678125 -0.5023340625 -6.4719009899
2.8644315625 -0.4822853125 -3.2617280640
2.7780687500 -1.0770559375 -5.7130624400
3.9682550000 -0.6388590625 -6.4212355765
3.4188628125 -0.5860496875 -4.0527973680
3.8412706250 -1.2345434375 -5.6669468440
4.4109265625 -1.3078181250 -4.8813886160
4.4764075000 -0.7446256250 -4.0964067520
5.0044340625 -1.3777334375 -5.6051774608
5.6244537500 -1.4781250000 -4.9102845280
5.5400125000 -0.9216781250 -4.0805016960
6.2044028125 -1.4818068750 -5.6784611720
2.8484678125 0.6468275000 -6.4237068181
2.2945471875 0.7162993750 -4.0697644880
2.7275168750 0.0620812500 -5.6697133912
3.2994840625 -0.0301000000 -4.8897167520
3.3468915625 0.5334956250 -4.0850348960
3.9015109375 -0.0985506250 -5.6053924640
4.5093159375 -0.1597450000 -4.9037955760
4.4141784375 0.3529896875 -4.0392495760
6.1893796875 -0.3850112500 -5.6816836296
5.6381331250 -0.3450884375 -4.8205919280
5.5971890625 0.2253200000 -4.0384724560
2.8166343750 1.1997537500 -5.6139692784
3.4149256250 1.1001818750 -4.8877350960
3.2815718750 1.6391868750 -4.0395733760
3.9901043750 1.0429246875 -5.6562834624
4.5212081250 0.9438096875 -4.7971876640
5.0366034375 0.8429343750 -5.7196044952
4.4729003125 1.5131834375 -4.0161043520
5.1051884375 -0.2647187500 -5.6480123152
5.5690643750 0.7997462500 -4.8230269040
6.2199634375 1.2693465625 -6.4474243910
6.2015137500 1.2861703125 -3.2212789680
6.1047906250 0.7010881250 -5.6607130464
2.7680578125 -1.6193531250 -3.2706001840
3.9724609375 -1.7994559375 -3.2943023440
5.0789315625 -1.9177731250 -3.2139740400
6.1467156250 -2.0624950000 -3.2068504400
2.7252190625 0.0482137500 -2.4101470160
2.7577243750 -1.0595065625 -2.4776657920
3.9571690625 -0.6862665625 -3.1903366400
3.8370646875 -1.2605315625 -2.4353904640
5.0176834375 -0.8208296875 -3.2080031680
5.0192421875 -1.3673596875 -2.3824426880
6.0962578125 -0.9381121875 -3.2385180800
6.2060421875 -1.5055778125 -2.4079192720
2.7410081250 1.7611187500 -3.2137020480
2.8047825000 0.6242928125 -3.1828633360
3.8714646875 0.4696540625 -3.2087802880
3.9196515625 -0.0949628125 -2.4208194640
5.0111125000 0.2721093750 -3.2868031360
5.0630350000 -0.2437965625 -2.4034119760
6.1696131250 0.1414431250 -3.2428181440
6.1532596875 -0.4079221875 -2.3967546480
3.8739371875 1.5852353125 -3.2882019520
3.9808996875 1.0430456250 -2.4365172880
5.6547553125 1.3551987500 -4.0093304560
5.0175759375 1.9337771875 -2.4596107040
6.1147612500 0.7081562500 -2.4505443040
6.6916600000 1.8276209375 -4.8500965840
3.9260478125 2.1446518750 -5.7097324808
4.4538996875 2.0777600000 -4.8207473520
4.9814156250 1.9443390625 -5.6827016568
5.5563793750 1.8897021875 -4.8748090000
6.1293812500 1.8404268750 -5.6585707856
3.9034862500 2.1230846875 -2.4223737040
5.0466412500 1.3820871875 -3.2637485760
6.1585137500 1.8453046875 -2.4327223520
2.8631550000 -2.1911456250 -2.4485756000
2.8430256250 1.1992834375 -2.4042409040
5.0413468750 0.8154950000 -2.4402345120
2.7486271875 1.7578400000 -6.4459777821
3.4048609375 2.2195928125 -4.7945843120
6.1441221875 -2.0842234375 -6.4366897734
3.8880331250 0.4680550000 -6.4241087186
5.0077128125 -0.8174165625 -6.4481759955
-2.7703421875 2.3035906250 -5.6798055896
-6.6529941313 6.2979143750 -4.8267959360
-5.5363884063 6.4020281250 -4.8507830400
-5.0377456250 6.5122425000 -5.7444943536
-4.4714221875 6.6030262500 -4.9207886000
-3.8960687500 6.6462143750 -5.6809272328
-3.3725168750 6.2363437500 -4.1080506000
-5.0225209375 6.5461050000 -2.4756841360
-3.9340296875 6.6698375000 -2.4544687600
-6.1286663750 6.3970025000 -5.6684013536
-3.8982053125 2.7836184375 -3.1825395360
-6.1451420938 2.4114131250 -3.2855986000
-5.5552842188 2.4908287500 -4.0505566720
-4.4366325000 2.6346771875 -4.0605167600
-3.3410059375 2.2584540625 -4.8986665840
-2.7776521875 2.8993018750 -6.4192427818
-6.1567695625 2.9753312500 -5.6656335112
-5.6052233438 3.0709256250 -4.8012934480
-5.5975196250 3.6586818750 -4.0388998720
-5.0714334375 3.1681459375 -5.6358788816
-4.4849403125 3.1879393750 -4.8635019040
-4.4210181250 3.7430559375 -4.0387962560
-3.9155262500 3.3732425000 -5.6402113256
-3.3351068750 3.3450640625 -4.8733972320
-2.7995284375 4.0937075000 -6.4540528360
-3.2953453125 3.9072756250 -4.0443785680
-2.7920437500 3.4966659375 -5.6942548408
-6.6624828875 4.1049681250 -4.8799379920
-6.1335630000 5.2455296875 -5.6697846272
-6.0960428125 4.0634462500 -5.6914869984
-5.5928433750 4.7929681250 -4.0363224240
-5.5626869375 4.2230703125 -4.8315104640
-4.4586162500 4.3270900000 -4.7928487440
-3.8598681250 5.5474300000 -5.6252051384
-4.4784500000 4.9402028125 -4.0839857840
-5.0074037500 4.2550784375 -5.6625846104
-3.3569562500 4.4671759375 -4.8342951440
-2.7410753125 5.2441053125 -6.4569670360
-3.3001425000 5.0446390625 -4.0241734480
-2.8186500000 4.6448062500 -5.6663652992
-5.5739220313 5.3228893750 -4.9134707200
-5.5522688438 5.8388356250 -4.0183320960
-4.9655459375 5.3388665625 -5.6582936128
-4.4344556250 5.5201250000 -4.8384656880
-5.0059525000 5.8957165625 -6.4412395519
-4.4559018750 6.0781171875 -4.0289397840
-3.2942165625 5.6120643750 -4.7966566320
-2.8251671875 6.2873793750 -3.2871787440
-2.7762815625 5.7746178125 -5.6481638536
-6.1202692813 2.9522321875 -2.4158718000
-4.9920312500 2.5932628125 -3.2442040080
-3.3617937500 2.7994209375 -4.0420601600
-2.8251268750 2.9054831250 -3.1830058080
-6.1625732188 3.4821668750 -3.2541640960
-5.0137059375 3.7130500000 -3.2872305520
-5.0540856250 3.1540634375 -2.4482647520
-3.8597875000 3.9040640625 -3.2532574560
-3.9728909375 3.3574265625 -2.4103931040
-2.7504143750 4.0401993750 -3.1900776000
-2.7828928125 3.4810784375 -2.3892165840
-6.1125292813 4.6534734375 -3.1896890400
-6.1281678438 4.0580981250 -2.4642734240
-5.0083040625 4.7842471875 -3.2259157840
-4.9929315625 4.2226134375 -2.3977260480
-3.9129865625 4.9942484375 -3.2960767680
-3.9064425000 4.4592612500 -2.4325798800
-2.7341012500 5.1790006250 -3.2529984160
-2.8448128125 4.6268806250 -2.4382140000
-6.1146524063 6.3786468750 -2.3735576160
-6.1338169688 5.8441837500 -3.2212660160
-4.9998518750 5.9291893750 -3.1869432160
-4.9991531250 5.3470096875 -2.4269716640
-3.8797153125 6.0651634375 -3.2127306480
-3.8418215625 5.5253118750 -2.3981405120
-2.7630187500 5.7409703125 -2.4373591680
-2.2672959375 3.0298606250 -4.0052117200
-2.2435250000 4.6619390625 -4.8780081440
-2.7347328125 2.3127415625 -2.4597531760
-6.1489422188 5.2497221875 -2.4670969600
-3.9216268750 4.4844431250 -5.6429973008
-6.1490685313 4.6557443750 -6.4147203319
-6.6801569625 4.6346475000 -4.0002511040
-6.7137011684 5.1665440625 -4.8848597520
-6.6661096688 5.7101043750 -4.0614234000
-6.6966203188 2.9744981250 -4.8099324320
-3.9207937500 2.8164059375 -6.4557281772
-6.1101011250 5.8102406250 -6.4493643415
-3.8928571875 6.0452893750 -6.4643317763
-2.2244706250 6.3205834375 -4.0228134880
-2.2174696875 3.5797634375 -4.8831371360
-2.1913203125 5.7772918750 -4.8698224800
-1.6618828125 6.4669446875 -3.2617539680
1.1267612500 2.5689409375 -4.8982650720
-2.2285153125 2.5096546875 -4.8530755440
-1.6622187500 3.0109003125 -6.4571865724
-1.6431643750 2.4671384375 -5.6223569936
-1.1056643750 2.6152196875 -4.7931336880
-0.5447965625 4.2980381250 -6.4322955483
-1.1324587500 3.2006378125 -4.0403245920
-0.5655575000 2.6774084375 -5.6569427192
-0.0140018750 2.6280793750 -4.8203458400
0.5838056250 3.2136856250 -6.4395424514
0.0293475000 3.2357768750 -4.0905913040
0.5245193750 2.6446075000 -5.6509032016
1.7164793750 2.4733062500 -5.6242518712
1.6478137500 3.0374796875 -6.4274968323
1.2075340625 3.6775750000 -4.8568834320
-2.2051206250 4.1272743750 -4.0339133520
-1.6596118750 3.6020159375 -5.6881518584
-1.1129475000 3.7513334375 -4.8646416800
-1.1280781250 4.3090837500 -4.0516057840
-0.5208778125 3.7350068750 -5.6228025424
-0.0412934375 4.3946537500 -4.0563721200
0.0385925000 3.8154437500 -4.8316788400
0.6135025000 3.7554318750 -5.6131105608
1.0993621875 4.2105331250 -3.9905112000
1.7519543750 3.6239996875 -5.6824866536
-1.6469268750 5.3804959375 -6.4144239902
-2.1544075000 5.2271740625 -4.0398324160
-1.6808700000 4.7954809375 -5.6642593040
-1.0969031250 4.8602228125 -4.8968921600
-0.5410206250 5.4316928125 -6.4363565184
-1.0890690625 5.4086071875 -4.0574730400
-0.5096843750 4.8779871875 -5.6381454816
0.0716487500 4.9405790625 -4.8691748800
0.0073234375 5.4718843750 -3.9833876000
0.6345993750 4.8723971875 -5.6783951168
1.1469712500 4.7715621875 -4.7825389520
1.1968243750 5.3741668750 -4.0320871200
1.6856806250 4.7313303125 -5.6977052536
-1.7298900000 6.5096221875 -6.4524295618
-1.6215703125 5.9937296875 -5.6457275824
-1.0514978125 5.9736003125 -4.8551996720
-1.0551125000 6.5168246875 -3.9865608400
-0.5132721875 6.0424003125 -5.7032020824
0.0246309375 6.0103250000 -4.8244516240
0.1046378125 6.5887153125 -4.0301443200
0.5570515625 5.9961484375 -5.6979798360
1.0986903125 5.9023143750 -4.8412115120
1.1910059375 6.5112481250 -4.1017947840
1.6693137500 5.8080503125 -5.6129564320
-1.6833156250 3.0424246875 -3.2433621280
-1.6540218750 2.4919978125 -2.4248475360
-0.5251106250 3.2202028125 -3.2833838080
-0.5722628125 2.6853096875 -2.4050957360
1.0949412500 3.1081878125 -4.0512690320
0.5580593750 2.6196003125 -2.3916386080
1.6435809375 3.0422768750 -3.2117074400
-1.6635893750 4.2062331250 -3.1854537360
-1.6186140625 3.6024728125 -2.4463090000
-0.5759178125 4.3021634375 -3.2171343280
-0.5242775000 3.7471946875 -2.3944880480
0.5332671875 4.2966137500 -3.2438931600
0.6182996875 3.7663834375 -2.4108723280
1.7283581250 4.1762540625 -3.2787469920
1.7222440625 3.6209762500 -2.4604784880
-1.6241100000 5.3275521875 -3.1774364480
-1.6784915625 4.7578290625 -2.3791269760
-0.5684331250 5.4512981250 -3.1841714880
-0.4763862500 4.8662293750 -2.4230731120
0.6134084375 5.4335203125 -3.2690848000
0.6050234375 4.8822334375 -2.4538600160
1.7660771875 5.2670700000 -3.2453437840
1.6472896875 4.7202578125 -2.4244460240
-1.6975459375 5.9298343750 -2.4366986160
-0.4784018750 6.5947890625 -3.2463022320
-0.5564065625 6.0383825000 -2.4271270880
0.6378243750 6.5543556250 -3.2043248000
0.5492846875 5.9805475000 -2.4240315600
1.6844846875 6.3740109375 -3.1919426880
1.7027865625 5.8172818750 -2.3887632640
2.1867784375 2.9366984375 -4.0167908080
2.2340381250 6.3141603125 -4.0625890800
0.5478737500 3.1908687500 -3.1890284880
1.7412043750 2.4728628125 -2.4192781760
2.2118528125 4.6642368750 -4.8185843680
-1.6362575000 4.2029275000 -6.4142482315
0.5209584375 4.3006718750 -6.4567450387
1.7364609375 6.3635028125 -6.4235943947
2.2991562500 4.0849193750 -4.0221658880
3.4008700000 6.7010931250 -4.8104764160
3.9549653125 6.6716784375 -5.6457262872
4.5124603125 6.5457421875 -4.8205660240
5.0537496875 6.4238775000 -5.6772527504
5.6158806250 6.3960484375 -4.8828003840
6.2118471875 6.3121984375 -5.6405428968
3.9534737500 6.6612509375 -2.4521503520
5.0226956250 6.4262828125 -2.4590149120
6.1392712500 6.3162162500 -2.4075954720
6.7097468750 2.3825628125 -4.0613068320
6.6962153125 3.5591637500 -4.0417363600
2.3098793750 2.4109293750 -4.8801322720
2.8792531250 2.3239484375 -5.6644224992