ITEM: TIMESTEP
1
ITEM: NUMBER OF ATOMS
2298
ITEM: BOX BOUNDS pp pp pp
-6.71875 6.71875
-6.71875 6.71875
-6.476 6.476
ITEM: ATOMS x y z
-6.22505625 -6.1000001563 -6.4317674953 1
-6.1680409375 -6.6708755469 -5.6435399896 1
-5.6512293125 -6.1833475937 -4.02833104 1
-4.5157928125 -6.3459964375 -4.035441688 1
-3.3470796875 -6.5174038438 -3.991469648 1
-6.6801294156 -5.4276024375 -4.892799328 1
-6.105005625 -5.5071578125 -5.6932277472 1
-5.5789154063 -5.623147625 -4.831924928 1
-5.6194308125 -5.0553621875 -4.049455752 1
-5.0386190625 -5.6883719062 -5.6958388704 1
-4.4909334375 -5.77622225 -4.832106256 1
-4.469554375 -5.2287865625 -4.003618624 1
-3.9534603125 -5.8775880313 -5.6681436088 1
-3.392995625 -5.9760123437 -4.848412824 1
-3.3425915625 -5.4147897813 -4.038977584 1
-2.8216465625 -6.01295875 -5.6497556544 1
-6.7161991191 -3.7595303125 -4.046023472 1
-6.1665655 -4.40895125 -5.6901296288 1
-5.6202142188 -4.4746875 -4.832870424 1
-5.006301875 -3.985804375 -6.436363901 1
-5.5596110938 -3.9285203125 -4.009511784 1
-5.08200875 -4.5671240625 -5.6783666224 1
-4.5271878125 -4.6929528125 -4.874834904 1
-4.4446009375 -4.141975 -4.059765544 1
-3.92971625 -4.723630625 -5.6445942824 1
-3.3818290625 -4.8570784375 -4.835745768 1
-3.362949375 -4.2584915625 -4.103996624 1
-2.8140678125 -4.902940625 -5.6338493032 1
-6.133783375 -2.690536875 -6.4363237498 1
-6.1897613125 -3.268510625 -5.6845654496 1
-5.6515961563 -3.3948096875 -4.875741544 1
-5.5624732813 -2.8304078125 -4.071836808 1
-5.040218125 -3.41371625 -5.6353038128 1
-4.49258625 -3.570209375 -4.85324392 1
-3.93149 -3.0940784375 -6.4749490708 1
-4.4887565625 -2.9820096875 -4.107260528 1
-3.9061871875 -3.63828375 -5.6361431024 1
-3.331236875 -3.6688271875 -4.86749112 1
-3.3887628125 -3.1344984375 -4.027372592 1
-2.779923125 -3.818426875 -5.6721975848 1
-6.1910580312 -6.0864121562 -3.200063592 1
-6.1673529375 -6.6929408625 -2.459532992 1
-5.0764725 -6.23008725 -3.223739848 1
-3.95153875 -6.4365275625 -3.255174352 1
-2.7440853125 -6.5493152188 -3.263994664 1
-6.1680530313 -4.944758125 -3.230384224 1
-6.1705282188 -5.5139961563 -2.437540496 1
-5.0624975 -5.1271453125 -3.246690792 1
-5.0034934375 -5.669716625 -2.41664892 1
-3.8912984375 -5.2811928125 -3.23392012 1
-3.9118309375 -5.8649782813 -2.4647656 1
-2.769710625 -5.413931125 -3.235953584 1
-2.850174375 -6.0058731562 -2.447034312 1
-6.151456375 -3.8431384375 -3.262725368 1
-6.1312020312 -4.3809878125 -2.418578768 1
-4.9762690625 -3.982525625 -3.242261208 1
-5.0403121875 -4.5487953125 -2.458121224 1
-3.8757915625 -4.1710134375 -3.209207704 1
-3.963121875 -4.7287234375 -2.41496516 1
-2.8351915625 -4.3403528125 -3.217509936 1
-2.77484375 -4.8927415625 -2.376666096 1
-6.1014944062 -2.6979140625 -3.24622452 1
-6.1564618437 -3.270714375 -2.464817408 1
-5.0067990625 -2.86073625 -3.221952472 1
-5.0850321875 -3.432501875 -2.419589024 1
-3.9564434375 -3.0939978125 -3.238181328 1
-3.9018065625 -3.6083046875 -2.367275896 1
-2.811125 -3.2288565625 -3.240538592 1
-2.736331875 -3.77169125 -2.415794088 1
-2.2719721875 -4.32961625 -4.049365088 1
-5.5941898125 -2.263923125 -4.861131688 1
-5.0010478125 -2.34194125 -5.624807512 1
-4.421071875 -2.3884215625 -4.842895272 1
-3.892279375 -2.529340625 -5.6743929488 1
-3.3213334375 -2.5758478125 -4.858463576 1
-2.774655625 -2.6510709375 -5.713755372 1
-5.006275 -2.3274825 -2.364089704 1
-3.8710346875 -2.515311875 -2.452577768 1
-2.8151696875 -2.6468515625 -2.453277176 1
-2.25228625 -2.6515278125 -4.852000528 1
-2.286820625 -6.0393782187 -4.821524472 1
-2.253441875 -3.2097484375 -4.038964632 1
-6.7129365344 -4.3230453125 -4.833142416 1
-6.6788670969 -2.64756375 -4.02697108 1
-5.5619975938 -6.70881614 -4.900596432 1
-2.793065 -6.5758220313 -6.4647144432 1
-3.8903175 -5.3051653125 -6.4351470606 1
-2.7926753125 -5.4691794063 -6.4683543437 1
-2.8146859375 -3.235830625 -6.4448306234 1
-2.22783 -4.901220625 -4.848218544 1
-2.189586875 -6.6226756375 -4.061902624 1
-0.582515625 -6.3722264375 -6.4241153242 1
-1.1048715625 -6.538531625 -4.076693808 1
0.5057203125 -6.2656079375 -6.416022526 1
-0.0420325 -6.32737475 -4.006390352 1
1.1279571875 -6.6847328344 -4.80376728 1
1.0628928125 -6.1006370937 -4.042099016 1
1.6782496875 -6.6156810156 -5.64159978 1
-2.21842375 -5.4638621875 -4.049390992 1
-1.7166271875 -6.0012184063 -5.632125392 1
-1.1407228125 -5.9544760625 -4.840188304 1
-1.0829684375 -5.3760131875 -4.061216168 1
-0.6017446875 -5.797050375 -5.6413834816 1
0.018570625 -5.8013597813 -4.899145808 1
0.55410875 -5.073274375 -6.4270603499 1
-0.0023246875 -5.2431646875 -4.078882696 1
0.5713759375 -5.6638659375 -5.6875638376 1
1.1355896875 -5.5650989688 -4.886219712 1
1.6506759375 -4.9678975 -6.4295866375 1
1.0728903125 -5.0253696875 -4.00139088 1
1.7195028125 -5.5535749688 -5.6730368744 1
-1.6646778125 -4.3283396875 -6.4485885167 1
-1.6949659375 -4.897135625 -5.6806345176 1
-1.1470653125 -4.79369375 -4.844721504 1
-0.576280625 -4.18330875 -6.4725117285 1
-1.104266875 -4.2594053125 -3.9840352 1
-0.5654634375 -4.73360125 -5.6379434304 1
-0.01155625 -4.651175625 -4.827573056 1
0.05778125 -4.0687540625 -4.067290656 1
0.5347184375 -4.4947228125 -5.6359902688 1
1.1510696875 -4.5159540625 -4.888071848 1
1.6735196875 -3.7767034375 -6.4498212881 1
1.13116875 -3.9354271875 -4.089425624 1
1.6850759375 -4.3693509375 -5.703329012 1
-2.2174159375 -3.770885 -4.854254176 1
-1.6725790625 -3.7404625 -5.6721172824 1
-1.11396875 -3.7208571875 -4.830849912 1
-0.52132125 -3.046308125 -6.4639349012 1
-1.1396478125 -3.136823125 -4.054856736 1
-0.572088125 -3.6181275 -5.6755120016 1
-0.046251875 -3.4798153125 -4.823182328 1
0.56636375 -2.8763640625 -6.4436571722 1
0.0235559375 -2.9359728125 -3.981069192 1
0.5375671875 -3.44220375 -5.63483236 1
1.0996040625 -3.358649375 -4.84851644 1
1.1634725 -2.7838603125 -4.06278336 1
1.659665625 -3.22199 -5.6407579 1
-1.6448575 -6.5420173125 -3.206021512 1
-0.5941121875 -6.4013952188 -3.177760248 1
0.53260875 -6.2760797813 -3.21300264 1
1.6504475 -6.0828579375 -3.251936352 1
1.6855596875 -6.5990758938 -2.381302912 1
-1.641874375 -5.4763980312 -3.256469552 1
-1.7573965625 -5.981687 -2.372132896 1
-0.5307678125 -5.288381875 -3.203819672 1
-0.5476453125 -5.8449859688 -2.375383848 1
0.519359375 -5.1111815625 -3.187241112 1
0.601355 -5.705621625 -2.4246144 1
1.6639925 -4.9775321875 -3.238492176 1
1.6689375 -5.51899625 -2.400821576 1
-1.712045 -4.3342790625 -3.27245232 1
-1.66694875 -4.8961546875 -2.461993872 1
-0.4905359375 -4.1845315625 -3.274317408 1
-0.621323125 -4.720835625 -2.412646752 1
0.604983125 -4.0059875 -3.203858528 1
0.5620234375 -4.56531 -2.36691324 1
1.6464834375 -3.81490625 -3.1936394 1
1.7109028125 -4.4175109375 -2.44287672 1
-1.6890534375 -3.196270625 -3.227884488 1
-1.6281009375 -3.795260625 -2.445829776 1
-0.576173125 -3.048888125 -3.250939048 1
-0.57163125 -3.6294284375 -2.467459616 1
0.624064375 -2.89605 -3.246587176 1
0.491275 -3.4432921875 -2.405367728 1
1.720510625 -2.7141734375 -3.20827516 1
1.6908540625 -3.2692765625 -2.37649772 1
2.21229625 -4.81261375 -4.029587384 1
-1.6779809375 -2.6736996875 -5.6640054448 1
-0.583805625 -2.4949003125 -5.6558780648 1
-1.1227434375 -2.5665221875 -4.838336168 1
0.0086940625 -2.4077984375 -4.853774952 1
0.5551165625 -2.3000565625 -5.6697133912 1
-1.6916603125 -2.6680290625 -2.397104352 1
-0.51067875 -2.5003828125 -2.419200464 1
0.5546059375 -2.316705625 -2.473391632 1
2.2033065625 -5.980569 -4.074479016 1
2.235381875 -5.3857379063 -4.813908696 1
2.2068003125 -3.74470875 -4.017930584 1
6.69612125 -5.9559165625 -4.031750368 1
6.68730625 -4.886976875 -4.037514008 1
2.249679375 -6.57249625 -4.810644792 1
2.25282375 -4.2801259375 -4.89702168 1
6.7132809375 -6.5098600312 -4.877969288 1
6.694213125 -3.1891084375 -4.859577448 1
2.747458125 -6.4188881563 -5.69415252 1
3.3277028125 -6.3698600937 -4.875754496 1
3.9365559375 -5.7329360313 -6.4418924622 1
3.3473215625 -5.8492765625 -3.992622376 1
3.886151875 -6.3162673125 -5.6917719424 1
4.425264375 -6.3050510312 -4.859434976 1
4.495005 -5.7472415938 -4.05216272 1
5.0177103125 -6.2985566875 -5.6397333968 1
5.56962875 -6.3723621563 -4.809906528 1
6.14556 -5.9273995 -6.450361516 1
5.6088528125 -5.7658364063 -4.097183872 1
6.102801875 -6.4845437813 -5.6384226544 1
2.7913046875 -5.3262084375 -5.65393656 1
3.3472409375 -5.293810625 -4.82209436 1
3.334865 -4.6905475 -4.0950986 1
3.8764903125 -5.1555790625 -5.6762748744 1
4.4399515625 -5.1781809375 -4.84637936 1
5.0328409375 -4.6325915625 -6.427294263 1
4.47538625 -4.609035625 -4.061591776 1
4.9961565625 -5.218453125 -5.639307276 1
5.5959528125 -5.2020459375 -4.890636344 1
6.095008125 -4.793855 -6.4440366658 1
5.5857403125 -4.672191875 -4.016505864 1
6.171978125 -5.3608503125 -5.6504537672 1
2.7899071875 -3.6646615625 -6.4339285365 1
2.84084875 -4.255844375 -5.671609564 1
3.3673165625 -4.0858734375 -4.818752744 1
3.3381034375 -3.51928125 -4.045466536 1
3.9265315625 -4.08817125 -5.6324142216 1
4.5099609375 -4.0437603125 -4.847648656 1
4.468640625 -3.4727875 -4.05449408 1
5.04664125 -4.04957875 -5.6774560968 1
5.624158125 -4.1423915625 -4.888745352 1
5.5937625 -3.6037090625 -4.03344708 1
6.199766875 -4.19938 -5.6967506912 1
2.2664090625 -3.2207134375 -4.88394016 1
2.242046875 -2.6417990625 -4.098608592 1
2.8064890625 -3.0749165625 -5.6967701192 1
3.3807675 -2.9801821875 -4.89980636 1
3.3399040625 -2.4492934375 -4.01971796 1
3.9701228125 -2.989816875 -5.6861507744 1
4.488259375 -2.9047575 -4.844294088 1
4.482561875 -2.3513340625 -4.025274368 1
5.0687459375 -2.9468840625 -5.6725641264 1
5.595831875 -3.0288528125 -4.815307512 1
5.61510125 -2.439605 -4.064842728 1
6.1295559375 -3.09454875 -5.6820916176 1
2.7528734375 -5.8630594063 -3.24195036 1
2.782315 -6.4388213437 -2.469829832 1
3.9356421875 -5.70583125 -3.248905584 1
3.8681859375 -6.275721 -2.460206496 1
5.05438125 -5.7634015313 -3.247040496 1
4.9986290625 -6.293539125 -2.36814368 1
6.1220040625 -5.96247675 -3.224840768 1
6.16313625 -6.5007641875 -2.37915288 1
2.8065965625 -4.7811834375 -3.242377776 1
2.7964109375 -5.316600625 -2.402155632 1
3.8853053125 -4.6074634375 -3.256534312 1
3.91627875 -5.1597446875 -2.42798192 1
5.0070946875 -4.6605146875 -3.231692376 1
5.021835625 -5.2123390625 -2.410159968 1
6.1548721875 -4.79745625 -3.21196648 1
6.1352803125 -5.3805510313 -2.451709984 1
2.7822075 -3.668571875 -3.240629256 1
2.7864403125 -4.2159753125 -2.426207496 1
3.92004125 -3.5547965625 -3.248322744 1
3.9279828125 -4.069654375 -2.379398968 1
5.0356628125 -3.5034653125 -3.232404736 1
5.043980625 -4.0903615625 -2.461618264 1
6.16233 -3.630301875 -3.236005392 1
6.1544153125 -4.21641875 -2.466423456 1
2.76172875 -2.512301875 -3.220825648 1
2.85643625 -3.0946965625 -2.44864036 1
3.9121534375 -2.394643125 -3.245486256 1
3.9210625 -2.96619375 -2.464027336 1
5.0655746875 -2.4039015625 -3.243349176 1
5.0348565625 -2.942785625 -2.424769824 1
6.1771515625 -2.52625 -3.255692432 1
6.1938946875 -3.079848125 -2.426518344 1
2.7834840625 -2.49781625 -6.4726608578 1
3.9116159375 -2.413079375 -6.4481551428 1
-6.1440402187 -2.113315625 -5.6517489672 1
-6.6682030969 -1.53407875 -4.081796896 1
-5.6072846563 -1.672780625 -4.106599976 1
-4.5156046875 -1.8309534375 -4.041049904 1
-3.34190625 -2.02395625 -4.0115582 1
-6.126817375 -1.0449671875 -5.6227921808 1
-5.5198199688 -1.0867846875 -4.862621168 1
-5.626920875 -0.5352290625 -4.037876664 1
-4.9886584375 -1.2497278125 -5.6824387312 1
-4.4263528125 -1.2698840625 -4.840900664 1
-4.446845 -0.718610625 -4.008812376 1
-3.8948459375 -1.3967609375 -5.6955344984 1
-3.3459778125 -1.478474375 -4.840343728 1
-3.293880625 -0.8987940625 -4.0649852 1
-2.789114375 -1.519270625 -5.6656736624 1
-6.6567078531 0.2043440625 -4.876376192 1
-6.1837507187 0.6086246875 -6.4646161893 1
-6.1108348125 0.046036875 -5.6709516024 1
-5.5362379063 0.017979375 -4.85518672 1
-5.5909218125 0.5672640625 -4.016661288 1
-5.0050790625 -0.08960125 -5.720050044 1
-4.4773078125 -0.1722284375 -4.846988104 1
-4.436955 0.3864625 -4.043990008 1
-3.930388125 -0.2997234375 -5.683719684 1
-3.3674375 -0.3445375 -4.880818728 1
-2.7761875 0.144453125 -6.4647360989 1
-3.32949 0.18619 -4.026401192 1
-2.795940625 -0.41586375 -5.6625794296 1
-6.7112005975 1.8460975 -4.020417368 1
-6.1278655 1.1936665625 -5.7149249376 1
-5.5936160312 1.110018125 -4.851223408 1
-5.5732474688 1.6680775 -4.039741752 1
-5.0467353125 1.02743125 -5.6887541264 1
-4.4641121875 0.930224375 -4.89501412 1
-4.49602625 1.4601590625 -4.03674984 1
-3.9088478125 0.84521875 -5.6918263408 1
-3.34900125 0.73320375 -4.869770672 1
-3.3556125 1.29747125 -4.0662804 1
-2.79333375 0.728823125 -5.6986222552 1
-6.1332055625 -1.6005675 -3.209997776 1
-6.2020324375 -2.1607634375 -2.401520984 1
-5.0902996875 -1.7911246875 -3.221913616 1
-3.9449275 -1.9605715625 -3.276545152 1
-2.7639996875 -2.08679 -3.255252064 1
-6.20323375 -0.5230009375 -3.22394708 1
-6.1073034375 -1.0595603125 -2.376096208 1
-5.0646609375 -0.682598125 -3.273566192 1
-4.94172125 -1.2255403125 -2.438395328 1
-3.87951375 -0.8375190625 -3.245214264 1
-3.8780759375 -1.41948375 -2.456903736 1
-2.7798425 -0.9546940625 -3.202343144 1
-2.783201875 -1.5431490625 -2.434613344 1
-6.1759583125 0.6125753125 -3.254889408 1
-6.0743116875 0.0493559375 -2.450078032 1
-5.01009125 0.45714375 -3.245797104 1
-5.004205625 -0.121045 -2.46722648 1
-3.885265 0.31089 -3.21151316 1
-3.9108365625 -0.26794375 -2.45453352 1
-2.729425 0.18226625 -3.250964952 1
-2.7750990625 -0.3666153125 -2.438201048 1
-6.1334649062 1.7425615625 -3.225229328 1
-6.1601826875 1.170809375 -2.440959824 1
-5.023340625 1.6151203125 -3.185751632 1
-5.032048125 1.01936875 -2.455388352 1
-3.9059721875 1.463961875 -3.260743712 1
-3.8855471875 0.91111625 -2.454701896 1
-2.7611240625 1.280083125 -3.307772424 1
-2.82338 0.7441284375 -2.434950096 1
-5.60611425 2.2182759375 -4.888512216 1
-5.0351925 2.1589225 -5.6767566888 1
-4.4761521875 2.012641875 -4.874627672 1
-3.90402375 1.9946490625 -5.6921410744 1
-3.3808884375 1.870956875 -4.812367408 1
-2.8346540625 1.819303125 -5.6549481112 1
-5.0141090625 2.208023125 -2.452085592 1
-3.90165875 2.0001584375 -2.387675296 1
-2.7890471875 1.7908828125 -2.401572792 1
-2.2545034375 0.6788625 -4.861325968 1
-2.2556859375 1.8243153125 -4.865859168 1
-6.7063219519 -0.9597734375 -4.851547208 1
-6.7100176944 -0.3716946875 -4.101341464 1
-6.6726396219 1.307818125 -4.86114464 1
-5.04556625 -0.681791875 -6.4603784633 1
-3.903190625 1.414565625 -6.4655268315 1
-2.2122425 -1.008108125 -4.044831888 1
-2.2180878125 -0.4539725 -4.873138192 1
-2.191951875 -2.090686875 -4.029017496 1
-1.099321875 -2.003719375 -4.059428792 1
-0.56905125 -1.925029375 -3.191800216 1
-0.0159234375 -1.8384515625 -4.056074224 1
1.1017809375 -2.2110734375 -4.850031824 1
1.12912625 -1.6794725 -3.993321784 1
1.68737375 -2.154434375 -5.6477817696 1
-2.2130084375 -1.552595625 -4.880974152 1
-1.6594371875 -0.966344375 -6.4299763632 1
-1.6659678125 -1.5701315625 -5.7151749112 1
-1.1073978125 -1.43539375 -4.893187888 1
-1.1021975 -0.927751875 -4.010547944 1
-0.520380625 -1.402901875 -5.6757593848 1
0.0207071875 -1.260195625 -4.8323912 1
0.001505 -0.689585625 -4.04957232 1
0.5744396875 -1.185590625 -5.6556604712 1
1.1435446875 -1.1303221875 -4.830979432 1
1.1165890625 -0.55389375 -4.065425568 1
1.6671771875 -1.00743625 -5.6857311296 1
-2.1995171875 0.111235625 -4.078999264 1
-1.669394375 -0.3682815625 -5.6919144144 1
-1.106094375 -0.390090625 -4.876583424 1
-1.0895796875 0.1866334375 -4.083402944 1
-0.533656875 -0.246201875 -5.6860083024 1
0.02305875 -0.143861875 -4.889082104 1
0.545911875 0.4571840625 -6.4655425941 1
0.00972875 0.3895665625 -4.02068936 1
0.6035453125 -0.11776625 -5.6843439704 1
1.132163125 0.0226959375 -4.830759248 1
1.6737078125 0.1078359375 -5.6690113928 1
1.1137 0.59506625 -4.051592832 1
-2.1737575 1.26092125 -4.073675992 1
-1.6595715625 0.7274659375 -5.6329504344 1
-1.081530625 0.753279375 -4.858709664 1
-1.10762625 1.3414790625 -4.090228648 1
-0.5373790625 0.8803578125 -5.6736533896 1
0.0424759375 0.9444815625 -4.87442044 1
0.5531278125 1.6109009375 -6.4632032297 1
-0.00833125 1.49855 -4.074543776 1
0.591438125 1.0363403125 -5.6932342232 1
1.1435715625 1.1504515625 -4.880469024 1
1.7192609375 1.1807665625 -5.6901995696 1
1.1489465625 2.2256665625 -4.872594208 1
-1.6373459375 -2.089611875 -3.197447288 1
-0.5436409375 -1.3374478125 -2.40460356 1
0.531668125 -1.7293659375 -3.245486256 1
1.7258990625 -1.598283125 -3.263955808 1
1.6149725 -2.1360384375 -2.42059928 1
-1.6927890625 -1.5147959375 -2.413385016 1
-0.535645625 -0.7970453125 -3.214673448 1
-0.5435334375 -0.2143684375 -2.436931752 1
0.5683390625 -0.6373540625 -3.219323216 1
1.6690853125 -0.4525078125 -3.252571 1
-1.6381925 0.1300615625 -3.250783624 1
-1.6733584375 -0.9487278125 -3.21352072 1
-0.5686615625 0.355905625 -3.224219072 1
-1.659934375 -0.39801875 -2.365708704 1
0.5938165625 1.0918775 -2.435001904 1
0.574775625 0.491463125 -3.215230384 1
1.6820121875 0.62602625 -3.236523472 1
1.72542875 0.0732478125 -2.39974656 1
-1.6355453125 1.2191978125 -3.214388504 1
-1.69113625 0.6776396875 -2.404059576 1
-0.5588790625 1.4275865625 -3.2321716 1
-0.4850803125 0.89155125 -2.371200352 1
0.5404159375 1.636176875 -3.2545138 1
1.1089028125 1.6870915625 -4.01822848 1
1.6891340625 1.199888125 -2.438550752 1
2.2394803125 0.722615 -4.072225368 1
1.6944284375 1.75380875 -3.248892632 1
2.235596875 1.88727 -4.047733136 1
-1.696806875 1.814250625 -5.6672279024 1
-1.1201096875 1.911753125 -4.897513856 1
-0.5368415625 1.97923625 -5.6679467384 1
0.005831875 2.0837665625 -4.841820256 1
0.565154375 2.179696875 -5.6562212928 1
-1.6952615625 1.8383709375 -2.528450584 1
0.564186875 2.1548240625 -2.390369312 1
0.6154778125 -1.1901728125 -2.388698504 1
0.5683390625 -0.0651315625 -2.417192904 1
1.6808834375 -1.038665 -2.468184928 1
-0.5498625 1.984853125 -2.4126338 1
2.2394265625 -2.056770625 -4.843542872 1
2.23067875 -0.936943125 -4.873811696 1
1.68801875 -1.58627 -6.4463387543 1
-0.5492040625 -0.824121875 -6.4485913662 1
6.692869375 -2.1032778125 -4.875961728 1
6.6919421875 0.7458484375 -4.043433072 1
2.2841465625 -1.4850184375 -4.051269032 1
2.2434175 0.1513465625 -4.84735076 1
2.7995821875 -1.9378084375 -5.6674364296 1
3.3762659375 -1.918364375 -4.869446872 1
3.3937884375 -1.33101125 -4.095823912 1
3.91187125 -1.80798875 -5.7113501856 1
4.4704009375 -1.8156078125 -4.880106368 1
5.066045 -1.2843159375 -6.4560141574 1
4.49763875 -1.27059625 -4.039379096 1
5.0331634375 -1.866979375 -5.6817134192 1
5.590725625 -1.874343125 -4.85389152 1
6.1844346875 -1.4023240625 -6.4604232772 1
5.6282028125 -1.3214975 -4.02748916 1
6.146178125 -1.97450625 -5.6802135776 1
2.8218078125 -0.2820128125 -6.4511974381 1
2.84531 -0.30417125 -3.2447998 1
2.8129525 -0.8588578125 -5.6603037632 1
3.360745625 -0.7497453125 -4.842247672 1
3.3924446875 -0.1821990625 -4.058431488 1
3.914746875 -0.7108303125 -5.6658498096 1
4.5012803125 -0.7229778125 -4.882023264 1
4.512500625 -0.1696753125 -4.067096376 1
5.038551875 -0.7002684375 -5.7035090448 1
5.598841875 -0.7962659375 -4.880080464 1
5.6469078125 -0.2252125 -4.05993392 1
6.1796240625 -0.838741875 -5.670910156 1
2.2658984375 -0.3937321875 -4.017308888 1
2.7820596875 0.2869175 -5.6669740432 1
3.35964375 0.3752153125 -4.888071848 1
3.37249 0.89681875 -4.01635044 1
3.947641875 0.395035625 -5.6701965008 1
4.4815540625 0.406430625 -4.839916312 1
4.5144490625 0.99077375 -4.07094312 1
5.05083375 0.429650625 -5.6726677424 1
5.6025640625 0.3223925 -4.856002696 1
5.6221559375 0.9241371875 -4.09924324 1
6.174343125 0.2439175 -5.6340150888 1
2.240515 1.3119971875 -4.824671808 1
2.77393 1.4079275 -5.688667348 1
3.3362221875 1.4493284375 -4.859033464 1
3.3842075 2.0227603125 -4.078817936 1
3.8860040625 1.5472340625 -5.6735057368 1
4.4514809375 1.5422353125 -4.865626032 1
5.040379375 2.075421875 -6.4561848647 1
4.486109375 2.12651125 -4.079478488 1
5.030543125 1.508413125 -5.6267127512 1
5.629855625 1.489600625 -4.874252064 1
5.560356875 2.042903125 -4.042150824 1
6.1924434375 1.34681375 -5.6614241112 1
2.8535740625 -1.4135309375 -3.232417688 1
2.8017725 -1.9709184375 -2.392376872 1
3.9126909375 -1.2477525 -3.223506712 1
3.96110625 -1.83722875 -2.459545944 1
5.0506859375 -1.2492171875 -3.239774424 1
5.0694984375 -1.8101521875 -2.459209192 1
6.2156365625 -1.4203571875 -3.266079936 1
6.1512575 -1.963299375 -2.433110912 1
2.817440625 0.279311875 -2.483299912 1
2.75474125 -0.8588309375 -2.430468704 1
3.9713590625 -0.16039 -3.247182968 1
3.94616375 -0.6958071875 -2.407932224 1
5.0818878125 -0.0962259375 -3.258477112 1
5.0736775 -0.6749925 -2.463159552 1
6.188371875 -0.3193153125 -3.216706912 1
6.1532865625 -0.8864046875 -2.404590608 1
2.826900625 1.960289375 -3.26092504 1
2.7826240625 0.8619753125 -3.250187832 1
3.966991875 0.9688034375 -3.266999528 1
3.8955178125 0.4123565625 -2.45641156 1
5.0806515625 0.966021875 -3.252221296 1
5.00434 0.41495 -2.3867298 1
6.144511875 0.77975125 -3.205335056 1
6.1880896875 0.224379375 -2.388309944 1
3.9264509375 2.0841025 -3.235124656 1
3.9291115625 1.5156559375 -2.440908016 1
5.013880625 2.0726940625 -3.219504544 1
5.0420053125 1.5002565625 -2.414913352 1
6.1501421875 1.9242096875 -3.264499792 1
6.174988125 1.3703025 -2.444418008 1
2.8287415625 1.414485 -2.423099016 1
5.071231875 -0.128274375 -6.4714366866 1
3.942481875 0.9769734375 -6.4438802057 1
6.11314875 1.90796375 -6.4542949089 1
-4.9893840625 6.6321184375 -5.6820501712 1
-4.4546925 6.5257875 -4.829813752 1
-3.9165878125 6.43366 -5.6958000144 1
-3.38501375 6.3764834375 -4.81723736 1
-2.8429046875 6.2938159375 -5.6576952304 1
-5.045324375 6.6231690625 -2.459610704 1
-3.9016453125 6.458788125 -2.423655952 1
-2.8198728125 6.33567375 -2.43575312 1
-2.284778125 6.243411875 -4.842286528 1
-6.1435699062 2.891938125 -6.4671619697 1
-6.1712780312 2.3123384375 -5.682974944 1
-5.04949 2.731575 -6.455448673 1
-5.6227471875 2.7348940625 -4.016816712 1
-4.490033125 2.570136875 -4.066099072 1
-3.3576415625 2.493274375 -4.110394912 1
-6.1704650625 3.4578046875 -5.6668976264 1
-5.6238544375 3.296783125 -4.851352928 1
-5.6182174063 3.8618434375 -4.0721088 1
-5.052956875 3.3138890625 -5.665910684 1
-4.520993125 3.15474875 -4.816356624 1
-3.90821625 3.6267946875 -6.46781703 1
-4.462513125 3.7596378125 -4.101367368 1
-3.9642775 3.067861875 -5.6394031208 1
-3.3658384375 3.0589125 -4.882476584 1
-3.376145 3.610306875 -4.039910128 1
-2.80102 2.8771703125 -5.662698588 1
-6.1722724063 4.5808034375 -5.6634018816 1
-5.6437325313 4.4606453125 -4.800425664 1
-5.594036625 5.07265625 -4.098258888 1
-5.098106875 4.3677384375 -5.6388099192 1
-4.5078109375 4.3422071875 -4.853658384 1
-4.5002859375 4.898855625 -4.038265224 1
-3.9569675 4.1780815625 -5.6455941768 1
-3.3513125 4.1478203125 -4.912538176 1
-2.847970625 4.6190734375 -6.443989132 1
-3.39200125 4.657141875 -4.021064968 1
-2.7711753125 4.03452875 -5.6911489512 1
-6.1585473437 6.200196875 -6.4367242257 1
-6.7133042516 6.3685553125 -4.083998736 1
-6.2212870313 5.6335240625 -5.6290855576 1
-5.6121759063 5.650226875 -4.870586648 1
-5.1069353125 6.0408953125 -6.4259555443 1
-5.6179096875 6.1946203125 -4.028577128 1
-5.0607909375 5.4640503125 -5.6468025984 1
-4.4603228125 5.438828125 -4.89404272 1
-4.5233984375 5.9672309375 -4.022593304 1
-3.889323125 5.33087125 -5.675624684 1
-3.355585625 5.2188428125 -4.823221184 1
-3.3779053125 5.7862546875 -4.04465056 1
-2.8187171875 5.211519375 -5.6844035496 1
-6.1569254375 2.9028090625 -3.194766224 1
-6.1564833437 2.3165578125 -2.44507856 1
-5.019900625 2.7726265625 -3.25114628 1
-3.9054884375 2.5253496875 -3.2700562 1
-2.8358096875 2.34452125 -3.252273104 1
-6.1483738125 4.054120625 -3.252324912 1
-6.15507375 3.4958328125 -2.453782304 1
-5.0304490625 3.83328875 -3.28928992 1
-5.0672140625 3.301889375 -2.390304552 1
-3.94143375 3.5919109375 -3.22550132 1
-3.9412053125 3.051306875 -2.385978584 1
-2.820155 3.439785 -3.198418688 1
-2.77909 2.8850984375 -2.412452472 1
-6.1570853438 5.1136271875 -3.276027072 1
-6.2070620938 4.58675625 -2.384877664 1
-5.0808128125 4.8812390625 -3.231925512 1
-5.07233375 4.3459159375 -2.37371304 1
-3.9508534375 4.7546040625 -3.214530976 1
-3.953178125 4.1647246875 -2.453018136 1
-2.818435 4.645854375 -3.210269768 1
-2.8175884375 4.056109375 -2.480851984 1
-6.2008768125 6.1784684375 -3.231834848 1
-6.18128225 5.635365 -2.380020664 1
-5.07115125 6.03392125 -3.201980488 1
-5.06104625 5.4482209375 -2.444469816 1
-3.9378996875 5.894896875 -3.230785736 1
-3.94272375 5.3250259375 -2.4440424 1
-2.816580625 5.7692159375 -3.24033136 1
-2.7940325 5.213454375 -2.426868048 1
-2.2456884375 2.3837453125 -4.05773208 1
-2.29464125 3.5120921875 -4.041878832 1
-2.2678603125 4.60406375 -4.009175032 1
-2.2502303125 5.132399375 -4.873008672 1
-6.7145989681 2.96619375 -4.032877192 1
-6.1809248125 4.01431875 -6.4709917206 1
-2.8443828125 3.4531821875 -6.4442866394 1
-5.0237034375 4.91538375 -6.4705464438 1
-3.963820625 4.74026625 -6.441185283 1
-2.2265803125 2.95404625 -4.855730704 1
-2.2365509375 5.690055625 -4.040583632 1
-1.7310859375 6.355050625 -5.646579824 1
-1.126089375 6.353384375 -4.907823648 1
-0.545696875 6.4728034375 -5.6811279888 1
0.01467375 6.5833403125 -4.893123128 1
0.6213096875 6.58915875 -5.6625574112 1
-1.7041975 6.3335640625 -2.392907904 1
-0.545481875 6.4265515625 -2.435144376 1
0.5476990625 6.6215834375 -2.378103768 1
-1.10311125 2.4223109375 -4.005755704 1
0.021634375 2.6495928125 -4.041270088 1
1.700139375 2.3295384375 -5.6858127272 1
1.0750940625 3.380740625 -4.856002696 1
-1.69500625 2.952138125 -5.6951472336 1
-1.136409375 2.975788125 -4.836743072 1
-1.1473071875 3.548575 -4.064259888 1
-0.6059775 3.136178125 -5.686601504 1
0.559994375 3.847774375 -6.4430432474 1
0.025128125 3.736511875 -3.9931016 1
-0.0581709375 3.195679375 -4.8673616 1
0.5226246875 3.258513125 -5.6674869424 1
1.1394596875 3.951404375 -4.05578928 1
1.6390659375 3.4457378125 -5.6437187272 1
-2.2327884375 4.0638628125 -4.870547792 1
-1.6551103125 4.0266678125 -5.6830474752 1
-1.14267125 4.1438159375 -4.793172544 1
-1.1461515625 4.753139375 -4.070528656 1
-0.6117153125 4.237354375 -5.65490796 1
-0.030771875 4.2713646875 -4.828401984 1
-0.03483 4.8687153125 -4.074673296 1
0.4902403125 4.4170003125 -5.6835163376 1
1.0527475 4.496295 -4.883758832 1
1.671114375 5.146266875 -6.4247580024 1
1.1205665625 5.0191346875 -3.982208968 1
1.63706375 4.5572340625 -5.6687419912 1
-1.690733125 5.1697153125 -5.6795996528 1
-1.126680625 5.3021821875 -4.890467968 1
-0.60699875 5.8777371875 -6.4257174866 1
-1.140655625 5.8276421875 -4.010729272 1
-0.5315471875 5.2973446875 -5.6589852496 1
0.0069740625 5.4598578125 -4.81419364 1
-0.0556446875 6.0370253125 -4.04873044 1
0.5446084375 5.530445 -5.6523331024 1
1.1155946875 5.5644821875 -4.815760832 1
1.0728096875 6.1616715625 -4.073909128 1
1.63201125 5.7316984375 -5.685869716 1
-1.7018190625 2.4241653125 -3.250952 1
-0.531560625 2.5336271875 -3.229594152 1
1.1043340625 2.8007109375 -4.097844424 1
1.6361365625 2.8924890625 -3.235176464 1
-1.71349625 3.5473521875 -3.252195392 1
-1.6295521875 2.9836221875 -2.443511368 1
-0.6006159375 3.681901875 -3.280314184 1
-0.568701875 3.1246621875 -2.461903208 1
0.598156875 3.841270625 -3.2324954 1
0.459911875 3.298825625 -2.41807364 1
1.6973846875 3.9808325 -3.20244676 1
1.6724715625 3.4311715625 -2.382339072 1
-1.6712621875 4.629406875 -3.229114928 1
-1.68887875 4.080834375 -2.395912768 1
-0.5838325 4.7288175 -3.2269908 1
-0.5479140625 4.1884015625 -2.358546248 1
0.5027775 4.9943559375 -3.251651408 1
0.524465625 4.4287715625 -2.462991176 1
1.696054375 5.139386875 -3.23223636 1
1.5904490625 4.5772425 -2.44520808 1
-1.6996153125 5.7764184375 -3.199895216 1
-1.670738125 5.1929084375 -2.430611176 1
-0.5772884375 5.849101875 -3.206306456 1
-0.5572934375 5.2944421875 -2.388387656 1
0.52718 6.0652440625 -3.243983824 1
0.5710265625 5.5404021875 -2.379191736 1
1.621180625 6.2918540625 -3.24700164 1
1.6553790625 5.7271296875 -2.46489512 1
2.1978240625 2.987828125 -4.043769824 1
2.216408125 4.0951990625 -4.099644752 1
2.1866440625 4.6779565625 -4.867206176 1
2.225061875 6.3073475 -3.996261888 1
0.5899196875 2.725125 -3.194364712 1
1.6803459375 2.313641875 -2.450350024 1
2.1886059375 5.7761496875 -4.862413936 1
-0.5671834375 2.5625446875 -6.4492454422 1
1.677994375 3.9941625 -6.466672138 1
-1.722284375 4.61062125 -6.4676571505 1
-1.6701603125 5.7722125 -6.4282190358 1
3.919100625 6.54132125 -6.4524372035 1
6.706683125 5.1635475 -4.072458504 1
6.7084165625 2.4018590625 -4.837209344 1
6.6898459375 3.5105065625 -4.88763148 1
6.6879646875 4.037995625 -4.017205272 1
6.6870240625 4.5942678125 -4.847208288 1
6.6789078125 5.765305625 -4.799402456 1
2.2642725 2.435735 -4.87584516 1
2.76430875 3.0782625 -6.4654666047 1
2.8217540625 2.4846609375 -5.7108243344 1
3.3396084375 2.61294875 -4.831458656 1
3.3393128125 3.1763428125 -4.036451944 1
3.892978125 2.638560625 -5.6591018176 1
4.474015625 2.6903084375 -4.878396704 1
4.47054875 3.24085625 -4.058405584 1
5.05551 2.6332125 -5.6364487696 1
5.6351365625 2.5921609375 -4.863320576 1
5.585511875 3.14819125 -4.04011736 1
6.1886003125 2.4980715625 -5.7062859536 1
2.241186875 3.5275990625 -4.890118264 1
2.8066234375 3.636321875 -5.6640637288 1
3.384073125 3.718720625 -4.877995192 1
3.8434878125 4.3367246875 -6.4714136191 1
3.3016340625 4.2595396875 -4.045699672 1
3.9478971875 3.75046 -5.6850589208 1
4.485249375 3.8202275 -4.841276272 1
4.442356875 4.3708021875 -4.018189624 1
5.03718125 3.750110625 -5.698187068 1
5.570865 3.714474375 -4.832507768 1
5.5966246875 4.2834853125 -4.033408224 1
6.1155003125 3.6241475 -5.6783368328 1
2.2576209375 5.224311875 -4.032916048 1
2.781428125 4.7511775 -5.6265508512 1
3.3573996875 4.819896875 -4.855368048 1
3.3512184375 5.39999375 -4.099087816 1
3.9177165625 4.8779065625 -5.6710176576 1
4.479336875 4.9142415625 -4.854357792 1
5.015224375 5.4695328125 -6.4481249646 1
4.44378125 5.47610375 -4.033498888 1
5.02008875 4.8704621875 -5.7068856312 1
5.560356875 4.8250434375 -4.879497624 1
5.574976875 5.354145 -4.000497192 1
6.1464065625 4.76198125 -5.6659715584 1