ITEM: TIMESTEP
187000
# source: voids-relax.187000.cfg
ITEM: NUMBER OF ATOMS
2298
ITEM: BOX BOUNDS pp pp pp
-6.7187500000 6.7187500000
-6.7187500000 6.7187500000
-6.4760000000 6.4760000000
ITEM: ATOMS x y z
-6.7033017125 -6.6634822344 -4.8987831520
-5.5475979688 -6.4632171250 -4.8405768640
-5.0185971875 -6.4219949063 -5.7160025440
-5.5707185313 -5.8764189688 -4.0789474560
-3.8385025000 -5.1693659375 -5.6711951000
-4.4748890625 -6.3239723750 -4.8360954720
-3.9206862500 -6.3345718750 -5.6675568832
-4.4570709375 -5.7655985625 -4.0053541920
-3.8887587500 -5.7472953438 -6.4268984499
-3.3768034375 -4.6175281250 -4.0733780960
-3.3426050000 -6.3140340000 -4.8921258240
-6.1625476875 -5.4901257813 -5.6938533288
-4.9862934375 -5.2917143750 -5.6092003520
-6.1480230938 -3.3189953125 -5.7503460672
-5.6373430000 -4.2924884375 -4.8580491120
-5.0376650000 -4.7574931250 -6.4586684107
-4.3942371875 -5.2363921875 -4.8737469360
-4.5245540625 -4.6929931250 -4.0520072960
-3.8601637500 -3.5496500000 -3.2837982720
-3.3230131250 -5.7996747188 -4.0394956640
-2.7570525000 -5.2233309375 -5.6599501736
-6.1540834063 -4.2257578125 -5.8402174048
-6.6975234531 -3.8777803125 -4.1326723520
-4.4751175000 -4.0940568750 -4.8069534720
-5.0856234375 -3.6462925000 -6.4607591226
-5.5611416250 -3.7285837500 -4.0537817200
-3.9411918750 -4.0858734375 -5.6599372216
-3.2996453125 -5.2033896875 -4.8049459120
-4.4755475000 -3.5198993750 -4.0180730560
-3.3736725000 -4.0426315625 -4.8314068480
-3.9342178125 -4.6177968750 -3.2557701440
-2.8531978125 -4.1176396875 -5.6698921288
-4.0101665625 -4.0794234375 -2.3978167120
-6.6944739469 -3.2900106250 -4.8528942160
-5.5938955313 -3.1752543750 -4.8855591600
-6.7045950719 -2.7544859375 -4.0218420880
-5.5686881250 -2.6581256250 -4.0342501040
-6.1253701563 -4.8713759375 -6.4074676005
-5.0407153125 -2.5485293750 -3.1758951600
-4.9961162500 -3.0665315625 -5.6646919008
-4.4667459375 -2.9854093750 -4.8472082880
-3.8887050000 -2.4238562500 -6.4465885984
-4.4900331250 -2.4276321875 -4.0251318960
-3.8931125000 -3.0007684375 -5.6745600296
-3.3681093750 -2.8980656250 -4.8526351760
-3.9345403125 -2.3938100000 -3.2086248640
-2.7807696875 -3.0001906250 -5.6648667528
-6.6430283438 -6.1422355625 -4.0128793040
-6.1066087188 -6.0407421250 -3.1867877920
-5.0300996875 -5.8521091875 -3.2120312400
-4.9803675000 -6.4230779688 -2.4125819920
-3.8834778125 -5.6972191563 -3.2298661440
-3.9002343750 -6.2867263125 -2.4569425920
-2.8427031250 -4.6755915625 -3.2501360240
-2.7386565625 -5.7378340000 -3.2550059760
-6.1634076875 -4.8893284375 -3.3129920800
-6.1864355313 -5.4404701875 -2.4799453440
-5.6130600938 -5.3313281250 -4.9171620400
-5.0578346875 -5.2729287500 -2.4677963680
-5.5136400625 -4.8408862500 -3.9845921360
-2.8172793750 -4.1208378125 -2.4454023600
-6.1681887500 -3.8074753125 -3.2633082080
-6.0003127188 -4.3549325000 -2.4187860000
-5.0404331250 -3.6958231250 -3.1560656480
-5.0042996875 -4.6050312500 -3.0282553120
-3.2970787500 -3.4726800000 -4.0673165600
-6.1322676250 -2.7206771875 -3.2303712720
-6.1500400625 -3.2666831250 -2.4091238080
-4.9794403125 -3.1992806250 -2.4225420800
-3.8889871875 -2.9621625000 -2.4788573760
-2.7792512500 -2.3804800000 -3.2578683680
-2.7866821875 -3.5160965625 -3.1653392800
-2.7846934375 -5.1850878125 -2.3709413120
-2.2456346875 -4.1436009375 -4.9029277920
-6.1021205938 -6.5984323719 -5.6598452624
-3.3716837500 -2.3691118750 -4.0075042240
-5.0301803125 -5.8129697813 -6.4679120329
-2.7319378125 -6.3019778750 -5.6170259504
-2.7659346875 -6.2536418438 -2.4046035600
-3.9091703125 -5.1879500000 -2.4005366320
-2.7662303125 -2.9267412500 -2.4217908640
-5.0321825000 -4.1905112500 -5.6208636280
-6.7058030628 -5.5917562813 -4.8484775840
-6.6465414438 -4.4895628125 -4.8697059120
-6.1483509688 -6.6265856813 -2.4354293200
-5.0187315625 -2.4847012500 -6.4468530782
-2.7750856250 -2.4348481250 -6.4751892139
-2.2240675000 -3.6332312500 -3.9922726720
-2.2132771875 -2.5297437500 -4.0283698960
-1.6814075000 -4.8209450000 -3.2038714800
-1.0494687500 -6.5373571875 -4.8022907520
-2.2338903125 -4.6610521875 -4.0006914720
-2.1728168750 -6.4230242188 -4.8083522880
-1.6248356250 -6.5006580313 -5.6448313040
-2.1938600000 -5.2189368750 -4.8081839120
-1.0886256250 -5.4268902500 -4.8981226000
-1.0364478125 -5.9593700000 -4.0381227520
-0.5320846875 -6.1209734063 -6.4131875922
0.0234753125 -6.6530492250 -4.8846913760
0.0100243750 -5.6632007813 -4.8285185520
0.5754609375 -6.2395190313 -6.4374856738
0.1462134375 -6.1789602500 -3.8315383520
1.0565234375 -6.3654794688 -3.9702801760
-1.6750112500 -5.4336049688 -5.6603737040
-0.5675731250 -4.3848309375 -5.6830358184
-1.1028559375 -4.9091756250 -3.9879855600
-1.6669353125 -4.8487203125 -6.4407331287
-0.5208106250 -5.5191830313 -5.6885909312
0.0303284375 -5.0707750000 -4.0692075520
0.5772078125 -5.6507993125 -5.6683508408
1.1299862500 -5.8211021563 -4.8278450480
1.7274443750 -5.3001665625 -6.4504516619
1.1657971875 -5.2078240625 -4.1013414640
-1.6717190625 -4.2580078125 -5.6886777096
-1.1282796875 -4.3631428125 -4.8382714080
-1.6362440625 -3.6635865625 -3.1913728000
-0.0286084375 -4.5147043750 -4.8243091520
1.1213190625 -4.1465706250 -4.0390812000
0.0289712500 -3.9222046875 -4.0635216240
0.5182440625 -4.5768662500 -5.6418471632
1.6497353125 -4.1876221875 -6.4426030090
1.1784821875 -3.5655868750 -4.8332589840
1.1284409375 -4.6601518750 -4.9116444880
-2.2356103125 -3.0764081250 -4.8494489840
-1.6244056250 -2.5352531250 -6.4653902008
-1.6746887500 -3.0997221875 -5.6919066432
-1.1422278125 -3.2455593750 -4.8472471440
-0.5482634375 -2.7307418750 -6.4329312325
-1.0996846875 -2.6592946875 -4.0828330560
-0.5663503125 -3.2970250000 -5.6316798432
0.4992703125 -2.9074181250 -6.4730139423
0.0324918750 -3.3843687500 -4.8929547520
0.6253678125 -3.4423650000 -5.6337262592
1.0835596875 -3.0062912500 -4.0278777200
1.6891475000 -3.0929496875 -3.3039645360
1.7372134375 -3.5975412500 -5.6889276832
-1.6396303125 -5.9624297188 -3.2498122240
-0.5101815625 -6.1022146563 -3.2238952720
0.5526171875 -5.7627793750 -2.5163922720
0.6039887500 -6.6825579750 -2.6309527120
1.6120565625 -6.4038072500 -3.2781512000
-1.6729553125 -5.3979821563 -2.4361157760
-0.5248956250 -4.9301381250 -3.2263302480
-0.5605856250 -4.3901118750 -2.4253397120
0.5920159375 -5.2361368750 -3.2483097920
1.6604584375 -5.3492000000 -3.2102956720
1.6949525000 -5.8963266250 -2.3694777360
-1.6950600000 -3.1048956250 -2.3997206560
-1.6967262500 -4.2511412500 -2.4423974960
-1.1084190625 -3.8003400000 -4.0480698880
-0.5398650000 -3.8299159375 -3.2519622560
0.5716581250 -4.0804446875 -3.2224187440
0.5564200000 -4.6238706250 -2.4334994720
1.7023700000 -4.1956040625 -3.2247371520
1.7123675000 -4.7610003125 -2.4479539040
-1.6377087500 -2.5562559375 -3.2404090720
-0.0505518750 -2.8302331250 -4.0639878960
-0.5332940625 -3.2901315625 -2.4188766640
0.5294912500 -2.9072031250 -3.2453826400
0.5826231250 -3.4773159375 -2.4563986080
1.6653228125 -5.8747567500 -5.6616106200
0.6288078125 -2.3383534375 -5.6919986024
1.1446600000 -2.4262481250 -4.7867354000
1.6689912500 -2.5191953125 -5.6801034856
-0.5754878125 -2.7044581250 -3.1979783200
0.5833487500 -2.3611703125 -2.4056267680
1.6544115625 -3.6125106250 -2.4271788960
2.2241346875 -2.5848509375 -4.8326631920
-2.1921131250 -5.8273344688 -4.0869388400
-1.6289878125 -6.4817111563 -2.3583908240
-0.5756356250 -5.5136440938 -2.4394444400
1.6689778125 -2.5598571875 -2.4347558160
1.7240581250 -4.7462862500 -5.6290117312
0.5941659375 -4.0125315625 -6.4391251379
2.2360940625 -5.9206861250 -4.8420533920
0.0804637500 -2.2547587500 -4.8408488560
-0.5021862500 -6.6833482344 -2.4271659440
-0.5551568750 -6.7175076682 -5.6915543488
-1.6702275000 -3.6925712500 -6.4466389817
6.7136571875 -5.0280034375 -4.0408426720
2.3256550000 -4.8262528125 -4.9051037280
2.2399775000 -5.3406134375 -4.0490801440
6.1760900000 -5.5807832188 -5.7014483816
6.1795031250 -4.5126081250 -5.6038472904
2.2466290625 -6.4658858125 -4.0389128240
3.9555834375 -6.5692349688 -6.4536719177
3.3779321875 -6.5253897500 -4.0252484640
4.4517362500 -6.4390659063 -4.0926895280
5.5948643750 -6.3241228750 -4.0465286000
3.4397178125 -4.8841146875 -4.8178979120
2.7926484375 -6.0131925625 -5.6652838072
3.3728931250 -5.4482182500 -4.0113639200
3.9523987500 -5.9877916563 -5.6600913504
4.4798206250 -5.8595777500 -4.8516249200
5.0373156250 -4.7130284375 -5.6670232608
4.5515231250 -5.3101103125 -4.0335895520
5.0823715625 -5.7869198438 -5.6191280600
5.6568650000 -5.7699778438 -4.8395925120
5.6194550000 -5.1543293750 -4.1075584240
2.8016650000 -4.3000403125 -3.2158650320
3.3453328125 -4.2961434375 -4.0613586400
3.3476171875 -5.9708940000 -4.8783060400
3.3872846875 -3.7545046875 -4.8967755920
3.9533662500 -4.8614321875 -5.7227479456
4.4798475000 -4.7323650000 -4.8365358400
4.5052309375 -4.1879043750 -3.9929850320
5.1264465625 -4.1569981250 -6.4665490551
5.5958050000 -4.5765168750 -4.8592018400
5.6871531250 -4.0303496875 -4.0220234160
2.2440087500 -4.2701015625 -4.0642210320
2.2573387500 -3.6979193750 -4.8292956720
3.9685506250 -3.7345365625 -5.6661723144
3.3267084375 -2.6575075000 -4.9014124080
4.4363771875 -3.0859353125 -4.0840246400
4.4967384375 -2.5181068750 -4.9022283840
5.0862415625 -2.4394168750 -5.6392010696
5.5981968750 -3.4669556250 -4.8269384080
5.5650465625 -2.9145937500 -4.0222436000
6.1652593750 -3.4472428125 -5.6313754712
2.7823956250 -6.5768217813 -3.2446832320
3.9319468750 -6.5482200625 -3.1932249360
5.0072290625 -6.3626280313 -3.2645516000
6.1649234375 -6.1721581875 -3.3007653920
6.1468768750 -6.7088956228 -2.4720187200
2.7751662500 -5.9869034375 -2.4736247680
3.9564703125 -5.3935612188 -3.2682947280
3.8717334375 -5.9381884688 -2.4622788160
5.0914821875 -5.2721493750 -3.2012940320
5.0514384375 -5.8328828125 -2.3988658240
6.1360731250 -5.0731131250 -3.2339589760
6.2099256250 -5.6400748438 -2.4239408960
2.8567721875 -4.8682315625 -2.4144211760
2.7771953125 -5.4083881563 -3.2408235360
3.8958537500 -4.2806634375 -3.2601220160
3.9704990625 -4.8289671875 -2.4489512080
5.0965481250 -4.1200450000 -3.2675564640
5.0333650000 -4.6716812500 -2.4511660000
6.2533825000 -3.9673412500 -3.2008795680
6.2138762500 -4.5262068750 -2.3951615520
3.3972284375 -3.2095200000 -4.0540019040
2.8550790625 -3.1861118750 -3.2112411680
6.1454256250 -2.8371265625 -3.2763767760
3.9743556250 -3.7486996875 -2.4110536560
3.9435165625 -3.1652031250 -3.1670100880
5.0895337500 -3.5725071875 -2.4382917120
4.9916146875 -2.9974225000 -3.2330134800
6.1383171875 -3.3792893750 -2.4397941440
2.2974228125 -3.1364468750 -4.0170887040
2.7580334375 -2.6165365625 -5.6857337200
4.5378303125 -3.6561959375 -4.8644733040
3.9177300000 -2.5907634375 -5.6491922424
5.6596734375 -2.3570315625 -4.8435946800
6.1896887500 -2.3336906250 -5.6966859312
2.7815893750 -3.7344693750 -2.4192911280
3.8649071875 -2.5653262500 -2.4247957280
5.0908237500 -2.4642896875 -2.3760055440
6.2251234375 -2.2848856250 -2.4369706080
2.7537871875 -2.5873503125 -2.4605691520
2.7910359375 -5.4530423125 -6.4474699820
2.8985762500 -4.8588118750 -5.6782707776
2.8130734375 -3.7557946875 -5.6829529256
5.0862012500 -3.5635981250 -5.7182134504
2.8756384375 -6.5916794906 -6.4432914078
2.8677909375 -3.1882753125 -6.4739736855
3.9508131250 -3.1530287500 -6.4468832564
6.1791403125 -6.1905635313 -6.4526576466
-3.8697581250 -1.7940003125 -2.4399236640
-6.6937895750 -2.2057387500 -4.8624009840
-6.1458730938 -2.1775065625 -5.7081652888
-5.6254225938 -2.0943821875 -4.8591500320
-5.5763394375 -1.5627543750 -4.0246138160
-5.0503634375 -1.9343146875 -5.6567549152
-4.4850209375 -1.8915296875 -4.8688510800
-3.8924943750 -1.2654362500 -6.4370453058
-4.4434318750 -1.3413446875 -4.0426818560
-3.9154725000 -1.8410315625 -5.6663937936
-3.3547928125 -1.8094131250 -4.8505369520
-2.7714709375 -1.2862240625 -6.4235624033
-3.3433843750 -1.2478465625 -4.0220493200
-6.6804245031 -1.1051671875 -4.8705089360
-6.1249495625 -1.0429650000 -5.6845330696
-5.5923327500 -0.9714371875 -4.8051531440
-5.6271533438 -0.3842990625 -4.0602706720
-5.0589768750 -0.8375459375 -5.6614279968
-4.4961875000 -0.7705331250 -4.8383491200
-4.4578368750 -0.2162631250 -4.0280720000
-3.9562418750 -0.6848556250 -5.6735122128
-3.3863978125 -0.7239318750 -4.8857793440
-2.8139737500 -0.1681031250 -6.4363369609
-3.3354025000 -0.1571515625 -4.0575248480
-2.7900953125 -0.7319003125 -5.6254149608
-6.1456742188 0.6352040625 -6.4362402094
-6.1265660938 0.0675906250 -5.6453390224
-5.5761230938 0.2034168750 -4.8408877120
-5.0504440625 0.8151456250 -6.4741554798
-5.6267206563 0.7836078125 -4.0636252400
-5.0206665625 0.2458928125 -5.6586718112
-4.4741231250 0.3590500000 -4.8226901520
-4.5368493750 0.9360965625 -4.0656068960
-3.9265046875 0.4513925000 -5.6668639512
-3.3661475000 0.3984084375 -4.8779304320
-3.3954950000 0.9365937500 -4.0462566080
-2.7741987500 0.4004509375 -5.6416541784
-6.1513730625 1.8207543750 -6.4274987751
-6.1513717188 1.8196793750 -3.2399946080
-6.1990116875 1.2214284375 -5.6874304320
-5.6294215938 1.3283909375 -4.9100384400
-5.5721025938 1.8607309375 -4.0097837760
-5.0236631250 1.3536400000 -5.6304390416
-4.4509300000 1.5061287500 -4.8678278720
-4.5110493750 2.0605600000 -4.0647391120
-3.8812337500 1.5528509375 -5.6552032656
-3.3439084375 1.5309746875 -4.7852718240
-2.8233665625 1.4893990625 -5.6809997640
-6.1723221250 -1.5584275000 -3.2851711840
-6.1731015000 -2.1303543750 -2.4652577760
-5.0136521875 -1.3927565625 -3.2304878400
-5.0460231250 -1.9862237500 -2.4337326080
-3.9139406250 -1.2329578125 -3.2006982400
-2.7805143750 -1.3011665625 -3.2340496400
-6.1868870313 -0.4692240625 -3.2376114400
-6.1071771250 -1.0547093750 -2.4145377440
-5.0695253125 -0.2810990625 -3.2882278560
-5.0642578125 -0.8335146875 -2.4391854000
-3.9102050000 -0.1056725000 -3.2378575280
-3.9507728125 -0.6460750000 -2.4256117040
-2.8222378125 -0.1714356250 -3.1719966080
-2.7852175000 -0.7539109375 -2.4099397840
-6.1523741563 0.0666365625 -2.4066758800
-5.0801275000 0.7900846875 -3.2191030320
-5.0035471875 0.2372793750 -2.3926747680
-3.9669650000 1.0113331250 -3.2615337840
-3.9435434375 0.4673562500 -2.4316732400
-6.1584801563 0.6627375000 -3.1622437520
-5.0285678125 1.9186600000 -3.1698465760
-5.0662868750 1.3394768750 -2.3953946880
-2.8293059375 2.0343837500 -3.2761565920
-3.9006106250 1.5286096875 -2.3910428160
-2.8328534375 0.9538878125 -3.2607048560
-2.8074028125 1.5098240625 -2.3977260480
-2.7863596875 -1.8781325000 -5.6769988912
-2.2761243750 1.4598365625 -4.8106188880
-3.3815603125 2.1395187500 -4.0616176800
-6.2422858125 1.2538128125 -2.4415297120
-3.9487840625 2.0746021875 -3.2405644960
-2.7908478125 -1.8574521875 -2.3882451840
-2.8099425000 0.4298656250 -2.4205733760
-2.2681021875 -1.9623990625 -4.8197370960
-2.2931900000 -0.2491984375 -4.0584703440
-6.6742768469 0.5477125000 -4.0258701600
-6.7050166063 1.6699856250 -4.0412053280
-3.9042656250 -0.1192578125 -6.4578037352
-5.0386862500 1.9156634375 -6.4221471382
-2.2231403125 -1.3633956250 -4.0728600160
1.6915259375 -1.9858206250 -3.2225094080
-1.6864868750 0.7317525000 -3.2403313600
-1.6838262500 -1.9862909375 -5.6197057192
-1.1606640625 -1.5568687500 -4.0747898640
-0.4867734375 -2.1682481250 -5.6210773360
-0.5940584375 -1.5812040625 -3.2558737600
-1.0926165625 -2.1011681250 -4.8954156320
-0.0174284375 -1.7004081250 -4.0220104640
1.1577346875 -1.8214531250 -4.0377600960
-2.2114765625 -0.8120953125 -4.8752234640
-1.6225781250 -0.8963215625 -5.6230810104
-1.0592915625 -0.9565484375 -4.8076658320
-0.5624937500 -0.5199640625 -3.2896396240
-0.5363040625 -1.0624762500 -5.6881078216
0.0007256250 -1.1196931250 -4.7923954240
0.5130571875 -1.2325143750 -5.6759510744
0.0585740625 -0.5338315625 -4.0171405120
1.0937587500 -1.2769790625 -4.8817253680
1.6698109375 -0.8573931250 -6.4281097210
1.1349715625 -0.7406212500 -4.0243029680
1.6556881250 -1.4226415625 -5.6390275128
-2.2107778125 0.3303878125 -4.8264591840
-1.6352631250 0.7737715625 -6.4670874957
-2.2356371875 0.8894953125 -4.0239273600
-1.6778465625 0.1967250000 -5.6841276720
-1.1442971875 -0.3873762500 -4.0293024400
-1.1364362500 0.1882190625 -4.8106318400
-0.6024165625 0.0296968750 -5.6545258760
-0.0267137500 -0.0062887500 -4.8699908560
0.5172228125 0.4601671875 -6.4475783902
-0.0190678125 0.5495265625 -4.0423321520
0.5473631250 -0.0898700000 -5.6343971728
1.1329828125 -0.1919681250 -4.8826967680
1.6915662500 -0.2558634375 -5.7010118992
1.0810871875 0.3474400000 -4.0235906080
2.2230193750 -0.3329409375 -4.8534770560
-1.6826303125 1.8977378125 -6.4267862856
-2.2072571875 2.0382537500 -4.0130994880
-1.7295137500 1.3285253125 -5.6478024928
-1.0929659375 0.7619868750 -4.0262328160
-1.1396746875 1.2907121875 -4.9030832160
-0.5302303125 1.1680143750 -5.6216498144
0.0370471875 1.1023184375 -4.8611705440
0.5655575000 1.6068293750 -6.4677670094
-0.0421265625 1.6500175000 -4.0288491200
0.6063537500 1.0452628125 -5.6755120016
1.1379681250 0.9037390625 -4.8116420960
1.6756025000 0.8908256250 -5.6797563720
1.0731859375 2.0352706250 -4.8329481360
-1.6858284375 -1.4643381250 -3.2017991600
-0.5713625000 -1.0527071875 -2.3972597760
0.5670759375 -1.8277956250 -3.2728279280
1.6558762500 -1.4113406250 -2.4479927600
-1.6550296875 -0.8918603125 -2.4118696320
-0.6037200000 0.0013975000 -2.4273861280
-0.5651812500 0.5964906250 -3.1841973920
0.5796534375 -0.6899215625 -3.1843657680
1.6887040625 -0.8241890625 -3.1801563680
-1.7254690625 1.2963021875 -2.4451821760
-1.7256437500 -0.3469159375 -3.2635672480
-0.5752996875 1.7731587500 -3.1903754960
-1.6852371875 0.1833950000 -2.3938922560
-0.5707175000 1.1879421875 -2.4409857280
0.5325012500 0.5106384375 -3.1967478800
1.6617753125 0.3165740625 -3.2540604800
1.6854253125 -0.2225384375 -2.4264017760
-1.6813268750 1.8939618750 -3.1796512400
0.5419209375 1.6125000000 -3.2580237920
1.1227971875 1.4864293750 -4.0257017840
1.6977206250 0.8729403125 -2.4388486480
2.2126187500 -0.9033762500 -4.0560483200
1.7116956250 1.4344934375 -3.2658727040
-0.0133568750 2.2234628125 -4.8254359760
0.5330253125 2.1756925000 -5.6666890992
1.6664918750 1.9882393750 -5.6118477408
0.5812121875 2.1769421875 -2.4422032160
2.2255590625 1.8836687500 -4.8291532000
-1.6947106250 -2.0246550000 -2.3786088960
-0.5186471875 -2.1439396875 -2.4317768560
0.5068893750 -1.2752859375 -2.4403510800
0.5349603125 -0.0862821875 -2.4614369360
0.6081275000 1.0805765625 -2.4107687120
-1.1340175000 1.8173681250 -4.0313618080
1.6550968750 1.9648581250 -2.4145377440
2.2209096875 0.7560609375 -4.8455374800
-1.6898462500 -1.4275596875 -6.4608348918
-0.5477125000 0.6017446875 -6.4346956834
-0.5986540625 1.7104593750 -6.4450448495
1.6775240625 0.3281437500 -6.4631526004
0.5975253125 -0.6592437500 -6.4507452838
6.7108084375 0.0224271875 -4.9091188480
6.6918212500 1.1051134375 -4.8493324160
2.2498943750 0.2098400000 -4.0113639200
2.2619478125 -2.0102096875 -4.0428372800
6.6823209375 -1.6546668750 -4.0311286720
6.7036462500 -0.5275965625 -4.0790640240
2.8275590625 -2.0451606250 -6.4604329912
2.8249656250 -2.0196562500 -3.2536848720
3.3416778125 -0.3652984375 -4.8081191520
3.9307240625 -2.0277053125 -6.4368638482
4.5211543750 -1.9901206250 -4.0580688320
5.0185837500 -1.8860471875 -6.4587154265
6.1489193750 -1.7703368750 -6.4759585027
5.5748559375 -1.7790443750 -4.0842966320
2.2481071875 -1.4667165625 -4.8751328000
2.7882006250 -0.9432184375 -3.2529984160
2.8100634375 -1.4813365625 -5.6446201864
3.8933140625 -0.8930831250 -3.2848732880
3.3710387500 -1.5692850000 -4.8138568880
3.8915806250 -1.4246168750 -5.6756570640
4.4579712500 -1.4140550000 -4.8639811280
5.0258265625 -1.3245209375 -5.6774353736
5.5977131250 -1.2183915625 -4.9072926160
6.1906428125 -0.6004546875 -3.1744186320
6.1910996875 -1.2044568750 -5.6653563384
2.8169703125 0.1559556250 -6.4688494728
2.8000390625 -0.4024262500 -5.6568663024
3.3426184375 -0.9569784375 -4.0920548800
3.3818290625 0.2409343750 -4.0597396400
3.9023171875 -0.3497378125 -5.6152502312
4.4919278125 -0.3301459375 -4.8215633280
4.4821318750 0.2611846875 -4.1006938640
6.1466215625 -0.0327740625 -5.6875703136
5.5863450000 -0.1408115625 -4.8830335200
5.6487487500 -0.6909965625 -4.0394827120
6.1601128125 0.5525768750 -6.4424543200
2.7881200000 0.7219028125 -5.6735679064
3.3389231250 0.7778296875 -4.8823988720
3.9260209375 1.2402543750 -6.4498707647
3.4005878125 1.3213765625 -4.0063514960
3.9440675000 0.6995293750 -5.6455915864
4.4802506250 0.8689090625 -4.8185325600
5.0505381250 0.9149190625 -5.6226665464
4.4780334375 1.4505109375 -4.0647261600
5.0104943750 -0.1539534375 -5.6827586456
5.6157731250 0.9501387500 -4.7835621600
6.1505453125 1.6431912500 -3.2693308880
6.1297709375 1.1274196875 -5.6660920120
3.4020390625 -2.1342781250 -4.0290434000
5.0541662500 -1.8951578125 -3.1740300720
6.1094265625 -1.7135634375 -3.2313556240
2.8021353125 -0.3916628125 -2.4075177600
2.8187843750 -1.4866712500 -2.3964178960
3.9586740625 -2.0104650000 -3.2385051280
3.9005568750 -1.4414809375 -2.4337196560
4.5076093750 -0.8910540625 -3.9998495920
4.9938453125 -1.2933996875 -2.4525777680
5.0778834375 -0.7228703125 -3.2486206400
6.1808871875 -1.1816803125 -2.3881545200
2.8328265625 1.3064475000 -3.2135336720
2.8235278125 0.1403009375 -3.2411473360
3.9191006250 0.1737603125 -3.2378316240
3.9367843750 -0.3744090625 -2.3981405120
4.9940468750 0.4034878125 -3.2454992080
5.0115290625 -0.1746740625 -2.4585745440
5.6189040625 0.3785075000 -4.0043439360
2.2856246875 1.3187562500 -4.0482123600
3.9708484375 1.2709590625 -3.1822157360
3.9290578125 0.7270493750 -2.3906413040
5.5817090625 1.5731415625 -4.0812529120
5.0651446875 1.9788062500 -2.4395092000
6.1780921875 0.5801506250 -3.2495531840
6.0773781250 1.1082578125 -2.3570956240
2.7719278125 1.8531521875 -5.6730860920
3.3586225000 1.8471590625 -4.8950659280
3.9114950000 1.8450896875 -5.7372554808
4.4387825000 1.9926065625 -4.8980966960
5.0585065625 1.9706228125 -5.6440969256
5.5902015625 2.1465868750 -4.8293733840
6.1780787500 2.1918578125 -5.5990148992
3.9538231250 1.8784415625 -2.4530958480
5.0431609375 1.3953500000 -3.2290631200
6.1845153125 2.2150509375 -2.4061318960
6.0978300000 -0.0099168750 -2.4739226640
2.7884962500 0.7219834375 -2.4635999200
2.7946103125 1.8625046875 -2.4057174320
5.0362809375 -0.7301265625 -6.4378572666
5.1696078125 0.9085496875 -2.2387791040
6.1541465625 -0.6290228125 -6.4307350914
2.7955643750 1.2782959375 -6.4703608676
-3.3115240625 6.5656700000 -4.0515928320
-6.6794646625 2.2423828125 -4.8157090240
-3.8669765625 3.1797559375 -3.2131062560
-6.1669417500 2.3810846875 -2.4378254400
-6.1878397500 2.9418450000 -3.2714679680
-6.1678111563 2.4124075000 -5.6815191392
-5.5906785938 2.4004750000 -4.8738635040
-5.0375709375 3.1215581250 -6.4470000834
-5.5956101563 2.9536431250 -4.0232150000
-5.0454318750 2.5301200000 -5.7065346320
-4.5041693750 2.6322046875 -4.8638904640
-3.8722709375 3.1903581250 -6.4428589405
-4.4384062500 3.1610106250 -3.9890994320
-3.9291518750 2.6260637500 -5.6433638424
-3.3663087500 2.6992981250 -4.8402660160
-2.8110175000 3.1402362500 -6.4611456102
-2.8095259375 2.5805509375 -5.6333597176
-6.1412385000 3.4778668750 -5.6172707432
-6.7089547209 4.0107712500 -4.0549992080
-5.5672530000 3.5215656250 -4.8216410400
-5.6100245625 4.1226384375 -4.1004218720
-5.0509546875 3.6992362500 -5.6839994472
-4.4787993750 3.6960246875 -4.8388801520
-3.9197993750 4.3543681250 -3.2390620640
-3.9543740625 3.7733709375 -5.6887567168
-3.3770856250 3.8245543750 -4.9022672400
-2.7884156250 4.2388056250 -6.4604851878
-3.3427125000 4.3267271875 -4.0077632640
-2.7744271875 3.7067343750 -5.6265754600
-6.1272661875 5.7237434375 -5.7199062768
-6.7132929775 5.1086284375 -4.0221529360
-6.1594355625 4.5574625000 -5.6588363016
-5.5621870625 5.2785053125 -4.0524735680
-5.6211844063 4.7239262500 -4.8506146640
-4.4852896875 4.2732593750 -4.0348718000
-3.9006106250 5.9859493750 -5.6363334968
-4.4429346875 4.8188890625 -4.8416000720
-5.0230046875 4.7698018750 -5.5939830472
-3.3386812500 4.8915187500 -4.8381936960
-3.3706759375 5.4534346875 -4.0349883680
-2.8091228125 4.8499028125 -5.7313519592
-6.6617345531 5.6546612500 -4.8637350400
-5.5876632188 5.8592068750 -4.8511716000
-5.5823110625 6.4133290625 -4.0317762720
-5.0251143750 5.8622303125 -5.6649056088
-4.4800490625 6.0104056250 -4.8513788320
-4.9891825000 6.4261484375 -6.4620194817
-4.4140978125 6.5624315625 -4.0290304480
-3.8650684375 6.5434846875 -6.4696525097
-3.3283075000 6.0034181250 -4.8544096000
-2.7587859375 6.6074337500 -3.2044413680
-2.7664721875 6.0135634375 -5.6727182552
-6.1351499688 3.4676275000 -2.4125172320
-5.0344265625 3.1118025000 -3.2507836240
-5.0694043750 2.5300259375 -2.4729771680
-3.9092643750 2.6197750000 -2.3994616160
-3.3323118750 3.2772718750 -4.0617860560
-2.7813878125 3.1539021875 -3.1993641840
-6.1340024063 4.0339509375 -3.2395671920
-5.0584662500 4.2450943750 -3.2571042000
-5.0237437500 3.6721328125 -2.4509976240
-3.9476821875 3.7733171875 -2.4618384480
-2.8132212500 3.7400190625 -2.4199257760
-2.7781090625 4.2983606250 -3.2064618800
-6.1248985000 5.1457025000 -3.2611063680
-6.1446959688 4.5910831250 -2.4184492480
-4.4809628125 5.4150571875 -4.0921196400
-5.0018271875 5.3524921875 -3.2231570080
-3.9406006250 5.4649103125 -3.2337128880
-3.8630528125 4.8979956250 -2.4246144000
-2.8060725000 5.4437059375 -3.2573891440
-2.7510190625 4.9017715625 -2.4485108400
-6.1317355000 6.2489615625 -3.2213178240
-5.0082503125 6.4746846875 -3.2737086640
-5.0294546875 5.9264615625 -2.4277099280
-3.8678500000 6.5748075000 -3.2174710800
-3.8765843750 6.0111984375 -2.4159365600
-2.7402287500 6.0199328125 -2.4679517920
-2.2675378125 3.1316093750 -4.0693241200
-2.2788925000 4.8193056250 -4.8553810000
-2.8026728125 2.5701906250 -2.4132554960
-5.0061271875 4.7872437500 -2.4160142720
-6.1010120000 5.6834175000 -2.4016634560
-3.8928706250 4.9279746875 -5.6726146392
-6.1058414375 5.1236650000 -6.4502658007
-2.8044062500 6.5932437500 -6.4482679547
-6.6922958625 6.2230809375 -4.0675367440
-3.9204309375 4.3487243750 -6.4510904546
-2.7531959375 5.4501962500 -6.4504872799
-2.2313371875 4.2554546875 -4.0447412240
-2.2037096875 5.3528818750 -3.9888274400
-1.6331131250 6.4450146875 -3.2581274080
1.1588231250 6.5201303125 -4.8293215760
0.6035318750 6.6192453125 -5.6600524944
1.7036465625 6.4923818750 -5.6813300400
-2.2240271875 6.4383093750 -4.0511913200
1.7126496875 6.4883103125 -2.3737259920
2.2301009375 6.3905928125 -4.8011639280
-2.2228581250 2.5521440625 -4.8743556800
-1.6527721875 2.4849834375 -5.6518072512
-1.0852662500 2.3798618750 -4.8523243280
-0.5486128125 4.0421746875 -6.4490608762
-1.1547784375 2.9231534375 -4.0105868000
-0.5456834375 2.3102825000 -5.7058352240
0.5857406250 2.7427684375 -6.4604091595
0.0162593750 2.7781359375 -4.0042662240
1.1151646875 3.1989715625 -4.8272881120
-2.2051206250 3.6978253125 -4.8510291280
-1.6431643750 4.1765631250 -6.4518314385
-1.6641671875 3.5964931250 -5.6902177024
-1.1182687500 3.4793315625 -4.8304743040
-1.1021571875 4.0458028125 -4.0205080320
-0.5764821875 3.4601025000 -5.6716665528
0.0181137500 3.8937978125 -4.0668114320
-0.0350987500 3.3206481250 -4.8504462880
0.5571993750 3.2940150000 -5.6174339384
1.6939715625 3.5969634375 -6.4744677395
1.1386400000 3.7809900000 -4.0749841440
1.6716921875 3.0437146875 -5.6421346976
-1.6930443750 4.7386537500 -5.6425634088
-1.1233481250 4.5838940625 -4.8784485120
-1.1077740625 5.7228968750 -4.8022648480
-0.5105309375 4.5770275000 -5.6028046544
0.0448812500 4.4866871875 -4.7920457200
0.0275468750 5.1047450000 -4.0951115520
0.5710131250 4.3423281250 -5.6557653824
1.1615643750 4.3660856250 -4.8491899440
1.7096934375 4.7726103125 -6.4188468391
1.1442837500 4.8980225000 -4.0044734560
1.6607137500 4.1644156250 -5.7050464472
-2.2230462500 5.8760843750 -4.8754566000
-1.6188156250 5.8805456250 -5.6520624056
-1.0622478125 6.3196428125 -4.0718886160
-0.5369893750 5.6447040625 -5.6265236520
0.0365634375 5.6946646875 -4.8374295280
0.5872321875 6.0505434375 -6.4192317726
0.0442765625 6.2404825000 -4.0247692400
0.5474975000 5.4457753125 -5.6795439592
1.1434371875 5.4392850000 -4.9190789360
1.1328887500 5.9252656250 -4.0281756160
1.7211153125 5.3627584375 -5.6744214432
-1.7133350000 3.0669481250 -3.2124327520
-1.6682118750 2.4833171875 -2.4402086080
-0.5802850000 2.9027150000 -3.2551873040
-0.5069834375 2.3547203125 -2.4298858640
1.1467562500 2.6185790625 -4.0695961120
1.7116956250 2.5220709375 -3.2508354320
-1.6792709375 4.1624537500 -3.2359017760
-1.6274828125 3.6253300000 -2.4022592480
-0.5193190625 4.0446875000 -3.2434268880
-0.5360756250 3.4690250000 -2.4581600800
0.5961681250 3.8454765625 -3.2491905280
0.5199640625 3.2952915625 -2.4262334000
1.6707918750 3.6004437500 -3.2211364960
1.6468328125 3.0542496875 -2.3829607680
-1.0959356250 5.1308003125 -4.0667466720
-1.6130106250 5.3346875000 -3.2313167680
-0.4986387500 5.1428134375 -3.2548376000
-0.5951468750 4.5944156250 -2.4110666080
0.5492712500 4.9163109375 -3.2254883680
0.5480081250 4.3842128125 -2.3675478880
1.6839471875 4.7741018750 -3.1742502560
1.7233728125 4.1736471875 -2.4579010400
-1.6920903125 5.8957434375 -2.4108723280
-0.5589328125 6.1853215625 -3.2268094720
-0.5575756250 5.6727615625 -2.3558781360
0.5803790625 6.0800790625 -3.1683570960
0.6067434375 5.4924437500 -2.4443791520
1.7320131250 5.9590206250 -3.2479600880
1.7293256250 5.3917296875 -2.4945811040
2.2358790625 4.6743821875 -4.0038906160
0.5940315625 2.7309300000 -3.2520011120
-1.6622859375 4.7642790625 -2.4709566560
-0.5334687500 2.8952168750 -6.4582377567
-1.6417668750 5.3007712500 -6.4315206302
6.7089943750 3.4466784375 -4.8488790960
2.2614371875 2.4770956250 -4.0910705280
2.2554440625 3.0687353125 -4.8446826480
2.2453793750 3.6189875000 -4.0204173680
2.7641743750 6.2811846875 -5.6513811304
3.3470259375 6.3717668750 -4.8691230720
3.9313153125 6.3273693750 -5.6119176816
4.5317162500 6.4141353125 -4.8485034880
5.0693371875 6.5673900000 -5.6701045416
5.6292643750 6.5432965625 -4.8453172960
6.1823921875 6.6855996875 -5.6880508328
2.8047421875 6.3332953125 -2.4143046080
3.9631487500 6.3180034375 -2.4306111760
5.0910387500 6.5217562500 -2.4261686400
6.7083090625 2.8470703125 -4.1051623040