ITEM: TIMESTEP
139000
# source: voids-relax.139000.cfg
ITEM: NUMBER OF ATOMS
2298
ITEM: BOX BOUNDS pp pp pp
-6.7187500000 6.7187500000
-6.7187500000 6.7187500000
-6.4760000000 6.4760000000
ITEM: ATOMS x y z
-5.6292616875 -6.1739870313 -4.0613845440
-5.0354746875 -5.5392707500 -5.6753785960
-3.9372278125 -5.3776404688 -5.6770066624
-4.4794712500 -6.0410592500 -4.0262069120
-3.9158756250 -6.5164511250 -5.6119176816
-3.3694665625 -6.3183138438 -4.8517026320
-3.3550078125 -5.7189704375 -4.0286030320
-2.7566628125 -6.3527460938 -5.6002272064
-6.1751614688 -5.7336428438 -5.6360058112
-5.6204090625 -5.6168790313 -4.8722833600
-5.6324114375 -4.5291228125 -4.8225606320
-5.0913612500 -4.9716465625 -6.4717172528
-4.5152687500 -5.4773641875 -4.8468197280
-4.3954196875 -4.8929431250 -4.0508934240
-3.8428025000 -4.8028312500 -3.3271874720
-2.8510343750 -5.2482843750 -5.6409003720
-2.7772490625 -4.6845275000 -6.4319546517
-6.7032835719 -4.6848768750 -4.7903101520
-4.5196225000 -4.3505787500 -4.9030832160
-5.6129673750 -3.9679459375 -4.0347940880
-3.8932334375 -4.2494750000 -5.6402475912
-3.9669381250 -4.8040943750 -6.4589835329
-3.9570884375 -3.6954871875 -6.4555403732
-4.4457162500 -3.8432862500 -4.0135787120
-3.3626134375 -4.2790912500 -4.7060573920
-3.4044981250 -5.2023012500 -4.7687450720
-3.9180928125 -3.6893193750 -3.1713101520
-2.8536009375 -4.1015953125 -5.6673379944
-6.1179284688 -3.5486959375 -5.6331874560
-6.6956473094 -3.0147703125 -4.0290304480
-5.6028583438 -3.3801628125 -4.8063058720
-6.1827630625 -4.6078665625 -5.6859150480
-5.6587704375 -2.7852846875 -4.0657882240
-5.0644056250 -3.2833187500 -5.6978904672
-4.5345246875 -3.2749606250 -4.8106188880
-4.5129978125 -2.6983440625 -4.0477978960
-3.9679325000 -3.1541575000 -5.6199401504
-3.3997815625 -3.1013750000 -4.8574921760
-2.8232590625 -2.4705381250 -6.4377987236
-3.3281731250 -2.5787771875 -4.0093693120
-2.8120387500 -3.0065062500 -5.6117609624
-6.6993909969 -6.3773958438 -4.0414255120
-6.1349618438 -6.3001866563 -3.1945848960
-5.0481865625 -6.1026513750 -3.2493977600
-5.0328275000 -6.6408342688 -2.3886596480
-3.9280231250 -5.9301058125 -3.2097387360
-3.9227287500 -6.4691632188 -2.4467234640
-2.8085584375 -5.7792833125 -3.1713878640
-2.7896787500 -6.3547953125 -2.4143823200
-6.1562549063 -5.1224153125 -3.2753924240
-6.1874258750 -5.6949898750 -2.4809556000
-5.5227036563 -5.0815250000 -4.0135787120
-5.0770637500 -5.5535360000 -2.4179570720
-4.9795478125 -4.9830281250 -3.2134689120
-3.9476687500 -5.3506781250 -2.4030104640
-2.7744540625 -4.1246406250 -2.4042668080
-2.3688968750 -4.6232256250 -4.0316338000
-6.2148975000 -4.0539325000 -3.2609768480
-6.1153780313 -4.5983393750 -2.4131130240
-5.0566521875 -3.8208321875 -3.2699137280
-5.0526612500 -4.3971396875 -2.4899960960
-3.9673681250 -4.2952968750 -2.4088000080
-3.3746265625 -3.6883921875 -4.0618637680
-6.1584841875 -2.9551615625 -3.1514935920
-6.1343074375 -3.5357556250 -2.3896569520
-5.0902996875 -2.7733790625 -3.2491257680
-5.0138806250 -3.3134725000 -2.3670427600
-3.9440271875 -2.5636734375 -3.2918026080
-3.9475612500 -3.1054734375 -2.4495858560
-2.7757575000 -2.3849546875 -3.2062416960
-2.8244684375 -3.5364812500 -3.1952843040
-2.2887153125 -5.6922432500 -4.0719792800
-2.9321162500 -4.6503962500 -3.3273040400
-2.2498675000 -4.0497668750 -4.8658332640
-2.2428262500 -2.3806009375 -4.0553748160
-6.1999832188 -2.3934068750 -5.6496973704
-5.6231892813 -2.2484028125 -4.9149342960
-6.2017206875 -2.3284365625 -2.4742594160
-5.0307312500 -2.2446537500 -2.4024923840
-2.8021218750 -5.1733971875 -2.4209489840
-2.8323025000 -2.9883925000 -2.4419830320
-5.0746853125 -4.4174571875 -5.6575786624
-6.1807353438 -2.9707893750 -6.4332694092
-2.2517890625 -3.5047956250 -4.0040719440
-6.7110666928 -5.2747562500 -4.0257535920
-5.0626721875 -6.6594317688 -5.6978567920
-4.5190312500 -6.5651230938 -4.8571554240
-2.8383762500 -5.8099651563 -6.4388995141
-6.1649758438 -5.1735584375 -6.4734549190
-5.0421934375 -3.8595859375 -6.4674756542
-3.9122475000 -2.5986915625 -6.4496834788
-3.9160368750 -5.9658952500 -6.4326764666
-1.7806300000 -4.6239512500 -3.2436729760
-1.6764221875 -5.2175931250 -5.6278499368
-2.2115840625 -6.2899781875 -4.8291272960
-1.6420221875 -6.2911969688 -5.6596691152
-1.0853065625 -6.3353902188 -4.8461721280
-1.2200443750 -5.7591001875 -4.0569420080
-0.5276771875 -6.4427733125 -5.6568546456
0.0600925000 -6.4910233438 -4.8472341920
-0.0445318750 -5.9698109375 -3.9662132480
1.1033128125 -6.6996455031 -4.8230010000
0.5741306250 -6.6231572375 -5.7166669816
1.1770040625 -6.1128423750 -4.0192257840
1.6623128125 -6.6841255938 -5.6758902000
-2.2348040625 -5.1367128125 -4.8970475840
-1.0783996875 -5.1933653125 -4.8349556960
-0.5837518750 -5.2954096875 -5.7277888640
-0.6035318750 -4.1484787500 -5.6303172928
-1.1987593750 -4.6649221875 -3.9786212640
-0.0617050000 -5.4394032500 -4.8285444560
0.0498665625 -4.8574278125 -4.0357007280
0.4933846875 -5.4471701250 -5.6932160904
1.0270953125 -5.5737110625 -4.8346448480
1.1348103125 -4.9833909375 -4.0900473200
-1.7137515625 -4.0555987500 -5.7037149816
-1.1960987500 -4.1184996875 -4.8283242720
-1.0753762500 -3.5664200000 -4.0370477360
-0.0675100000 -4.2965062500 -4.8181828560
1.1658375000 -3.8960553125 -4.0002252000
0.0425028125 -3.7106581250 -4.0844261520
0.4962737500 -4.3894803125 -5.6088014304
1.6092078125 -3.9599909375 -6.3925282456
1.1068334375 -3.3450506250 -4.8768165600
1.1005312500 -4.4131437500 -4.8923978160
-2.2379215625 -2.9829368750 -4.8279227600
-1.6968068750 -2.8975953125 -5.6668432280
-1.1400509375 -2.9878146875 -4.8322357760
-1.1519296875 -2.4046809375 -4.0722253680
-0.5891000000 -3.0748359375 -5.6258177680
0.0059931250 -3.1303596875 -4.8535029600
0.5571053125 -3.2482737500 -5.6592494704
1.1238990625 -2.7874884375 -4.0270746960
1.7045603125 -2.8236353125 -3.2187144720
1.7218140625 -3.3760106250 -5.6426747960
-1.7452625000 -5.7798114063 -3.2015142160
-1.6716384375 -6.3275480938 -2.3854475520
-0.6431053125 -5.8754232500 -3.2673492320
-0.4982356250 -6.4041028750 -2.4117401120
0.5799625000 -6.0398955625 -3.2893935360
0.6117690625 -6.5891797125 -2.4709696080
1.7507450000 -6.1537434375 -3.2352671280
-1.6527050000 -5.1588846875 -2.4653613920
-0.5436678125 -4.7287637500 -3.3000530320
-0.5758909375 -5.2839475000 -2.4892060240
0.6086784375 -4.9285928125 -3.2056718080
0.4524137500 -5.5034195000 -2.4347687680
1.6489962500 -5.0856906250 -3.1665308640
1.6278859375 -5.6335267500 -2.3663433520
-1.6762071875 -3.4654775000 -3.2718565280
-1.6791096875 -4.0264125000 -2.4814736800
-0.5325550000 -3.6197803125 -3.2158002720
-0.6148059375 -4.1882268750 -2.4510235280
0.5523081250 -3.8274568750 -3.2281953360
0.5573068750 -4.3695659375 -2.4085668720
1.7703906250 -3.9632293750 -3.3711595120
1.6967800000 -4.4699575000 -2.4280466800
-1.6953153125 -2.9414418750 -2.3838285520
-0.0326262500 -2.5908978125 -3.9964302640
-0.5240893750 -3.0572462500 -2.3982700320
0.5715103125 -2.6726381250 -3.2622720480
0.5875009375 -3.2387196875 -2.4632631680
1.6183318750 -5.6178411563 -5.5755769600
2.2132234375 -5.6525663438 -4.8132092880
2.2143790625 -3.6009678125 -4.7027287280
2.2029034375 -5.0306909375 -4.0369052640
1.6296059375 -2.3210056250 -5.6465267208
-1.6841218750 -2.3860028125 -3.1996232240
-0.6093234375 -2.5184965625 -3.2244263040
1.6194471875 -3.4314134375 -2.4530051840
2.2103478125 -2.3668946875 -4.8303188800
1.6493321875 -2.3074606250 -2.3753449920
1.6936490625 -4.5623403125 -5.6537720696
0.5500371875 -3.8190046875 -6.4271056819
-0.5841012500 -5.8862417813 -6.4758862235
0.5931446875 -6.0296857500 -6.4479997188
-1.6996690625 -4.6629737500 -6.4504561951
-0.5837653125 -4.6905743750 -6.4673819335
1.6713562500 -5.1043284375 -6.4680375119
-1.6658065625 -3.4845453125 -6.4337038193
-0.5670221875 -2.5034734375 -6.4366015702
0.5182171875 -2.6686875000 -6.4374793273
6.6648118750 -4.0857525000 -4.0743754000
6.6879109375 -3.5433746875 -4.9132116800
2.2530253125 -2.9985109375 -4.0880397600
6.6743793750 -5.8129442500 -4.8597587760
6.1171262500 -5.8945770625 -5.6807588568
6.1915028125 -4.8225843750 -5.6575372160
2.2770784375 -6.2504558125 -4.1054472480
3.9109440625 -6.5693438125 -6.4289732308
3.3335884375 -6.4327260938 -4.0408815280
4.4265678125 -6.5759375938 -4.0314654240
5.0281378125 -6.5450111875 -6.4675747499
5.6087856250 -6.5743143438 -4.0247174320
2.7873003125 -4.6899965625 -5.6568779592
2.7499037500 -5.8243970313 -5.6044016360
3.3299334375 -5.3582837500 -4.0050562960
3.9310465625 -5.9944566563 -5.6458596928
4.4928818750 -6.0298886563 -4.8510291280
5.0061003125 -4.9099281250 -5.6170751680
4.4679418750 -5.4511919688 -4.0503105840
5.0736640625 -5.9903810625 -5.6503980736
5.6027118750 -6.0015677813 -4.7783425040
5.5423371875 -5.3755348125 -4.0706581760
2.2507140625 -4.5180906250 -4.7668152240
2.6974437500 -4.1209050000 -3.3463564320
3.3723825000 -4.7948225000 -4.8290366320
3.3700309375 -5.8571710938 -4.8727755360
3.2712518750 -4.2132609375 -4.0297039520
3.8832628125 -4.8354843750 -5.6880495376
4.4446681250 -4.8764553125 -4.8474155200
4.4776571875 -4.3404468750 -4.0068954800
5.0814712500 -4.3477165625 -6.4236845406
5.6158000000 -4.8307946875 -4.8839660640
5.5998362500 -4.2851381250 -4.0427854720
2.7452543750 -2.5074778125 -5.6311138408
2.7497828125 -3.5901237500 -5.6583480112
3.3468243750 -3.6615575000 -4.8503944800
3.3401593750 -3.0871043750 -4.0242382080
4.4181693750 -3.7755478125 -4.8130668160
4.5393487500 -2.6538659375 -4.8438407680
5.0998537500 -2.6518771875 -5.6763901472
5.5004525000 -3.7350471875 -4.8791867760
6.1098296875 -3.6771987500 -5.6172318872
5.6138246875 -3.2193965625 -4.0312711440
2.7834303125 -6.3881767500 -3.1693155440
3.8773234375 -6.5401280000 -3.2021877200
5.0107496875 -6.5754740000 -3.2832024800
6.1741684375 -6.4152116563 -3.2463410880
2.8336462500 -5.7733452813 -2.3910298640
3.9174075000 -5.3990920938 -3.2444371440
3.9348090625 -5.9594788438 -2.4490159680
5.0320212500 -5.5038629375 -3.1987554400
5.0757603125 -6.0656754063 -2.3936073120
6.1143043750 -5.3222981250 -3.2842256880
6.1897693750 -5.8694623750 -2.4296138720
2.8070400000 -4.6695043750 -2.4503759280
2.7521746875 -5.2757237500 -3.2251257120
3.8659821875 -4.2871268750 -3.2727113600
3.8739640625 -4.8303109375 -2.4372296480
5.0351387500 -4.3166490625 -3.2121737120
5.0069334375 -4.8980090625 -2.4718503440
6.1472934375 -4.2493809375 -3.1747683360
6.1916103125 -4.8146831250 -2.3836731280
2.7728550000 -3.0466575000 -3.1874742480
2.7849084375 -3.6243625000 -2.3937497840
6.1633512500 -3.0664240625 -3.2212401120
3.9117906250 -3.7430962500 -2.4475912480
4.4187875000 -3.1947118750 -4.0286289360
4.9937915625 -3.7273475000 -2.4368540400
5.0171190625 -3.1877915625 -3.2881112880
6.1124500000 -3.6431078125 -2.4579139920
6.6619093750 -2.4596940625 -4.8717264240
3.3497403125 -2.5806987500 -4.9172786080
3.8633887500 -3.7444265625 -5.6863321024
3.9788168750 -2.5964743750 -5.6149031176
5.6200328125 -2.6131100000 -4.7733948400
6.1148821875 -2.5270965625 -5.7215809704
2.7942071875 -2.4782915625 -2.4292512160
3.8775921875 -3.1603118750 -3.2008407120
5.0581706250 -2.6755675000 -2.3826369680
6.1330765625 -2.4869453125 -2.4363748160
3.9311675000 -2.5859125000 -2.4232026320
3.8799706250 -5.4310935000 -6.4345818354
4.9464243750 -3.7536312500 -5.6767061760
6.2121831250 -3.1366753125 -6.4630546573
2.8374221875 -6.3726362813 -6.4537063700
3.9144378125 -3.1519000000 -6.4274974799
6.1206334375 -4.2367631250 -6.4348476104
2.7709200000 -5.2747696875 -6.4179142951
-6.0829197500 -1.8299590625 -6.4449635110
-6.6839521156 -1.9254459375 -3.9990206640
-5.0407287500 -1.6360693750 -6.4224969718
-5.5379673125 -1.7304006250 -4.0165965280
-4.9927837500 -2.2170262500 -5.6110887536
-4.4493846875 -2.1073896875 -4.8046350640
-4.5080125000 -1.4996787500 -4.0702955200
-3.9134031250 -2.0152084375 -5.6711407016
-3.3744921875 -1.9881453125 -4.7927321760
-2.7789153125 -1.3543521875 -6.4665334091
-3.3815468750 -1.3796415625 -4.0732097200
-2.8399350000 -1.8770575000 -5.6350344112
-6.2003446875 -1.2141990625 -5.7266698112
-5.6659998125 -1.1802290625 -4.8557307040
-4.9640812500 -0.5216975000 -6.4562799324
-5.5746799063 -0.6429978125 -4.0157935040
-5.0875584375 -1.0761825000 -5.6323183768
-4.5049353125 -0.9557287500 -4.9055959040
-3.9002075000 -0.3673946875 -6.4173411691
-4.4244984375 -0.4482750000 -3.9883611680
-3.8868775000 -0.9407056250 -5.6040584080
-3.3271921875 -0.7915225000 -4.8218094160
-3.3756881250 -0.2009443750 -4.0579522640
-2.7884156250 -0.7690953125 -5.6708453960
-6.6604051813 -0.1905168750 -4.8858052480
-6.7116860944 0.3703240625 -4.0684951920
-6.0765705313 -0.1332328125 -5.6667784680
-5.5548300313 -0.0577006250 -4.7798578880
-5.6541277813 0.5467181250 -4.0723807920
-5.0597428125 0.0804100000 -5.7137022688
-4.5114256250 0.1073118750 -4.8277673360
-3.8546275000 0.7765531250 -6.4454129454
-4.4785978125 0.6614878125 -4.0098096800
-3.9618050000 0.2136831250 -5.6514407096
-3.3808212500 0.3361793750 -4.9011015600
-2.7602103125 0.9102025000 -6.4385941059
-3.3064446875 0.8423162500 -3.9745413840
-2.7671440625 0.3470771875 -5.6291088712
-6.0966192813 1.5485509375 -6.4093982256
-6.1308983438 0.9872665625 -5.6074349944
-5.5422700000 1.1045490625 -4.8911285200
-5.0697000000 1.7295271875 -6.4321682302
-5.5404263750 1.6465775000 -4.0500774480
-4.9462228125 1.1610940625 -5.6378696040
-4.4087496875 1.2318693750 -4.7905691920
-4.4931103125 1.8428859375 -4.0786625120
-3.9119518750 1.3879459375 -5.7138447408
-3.3639303125 1.3987765625 -4.8295547120
-2.8261481250 1.4939812500 -5.6581343032
-6.1346245625 -1.7464046875 -3.2312649600
-5.0042325000 -1.6606734375 -3.1557029920
-3.9347956250 -1.5220790625 -3.2469498320
-3.8848618750 -2.0554537500 -2.3684545280
-2.8373146875 -1.2842084375 -3.2698619200
-2.8139334375 -1.8327003125 -2.4273731760
-6.1926974063 -0.6541240625 -3.2933179920
-6.1665265313 -1.1861953125 -2.4115976400
-5.0410109375 -0.4510834375 -3.2275347840
-5.0772384375 -1.0366896875 -2.4810203600
-3.8945906250 -0.3821625000 -3.1646916800
-3.9130537500 -0.9670162500 -2.4173612800
-2.7994343750 -0.2341081250 -3.2376243920
-2.7660690625 -0.7694043750 -2.3575878000
-6.1694035000 0.4097093750 -3.1909842400
-6.1314465938 -0.1389706250 -2.3726509760
-5.0800871875 0.6278537500 -3.2739547520
-5.0145659375 0.1070431250 -2.3991766720
-3.9234543750 0.8292818750 -3.2442428640
-3.9339087500 0.2509587500 -2.4840511280
-6.1136996875 1.5861490625 -3.2219265680
-6.1422651250 1.0041575000 -2.4497542320
-4.9996637500 1.7192878125 -3.1858552480
-5.0111796875 1.1591725000 -2.3777022560
-2.8179243750 2.1132887500 -3.2336610800
-3.8803603125 1.3701009375 -2.3939440640
-2.7473775000 0.9401546875 -3.1725664960
-2.7904446875 1.5400181250 -2.4678740800
-6.1924246250 2.1717418750 -5.6928016264
-5.6298220313 2.2055775000 -4.8756508800
-3.3511378125 1.9563521875 -4.0327735760
-6.1387324063 2.1346946875 -2.4057562880
-3.9320006250 1.9160262500 -3.2440485840
-2.8176153125 0.3321615625 -2.4514509440
-2.2550140625 -1.8265190625 -4.8690194560
-2.2424096875 -0.1335284375 -4.0278000080
-2.2522862500 1.5706018750 -4.8593054560
-6.7007995156 -1.3605603125 -4.7841968080
-6.6529812313 1.4622015625 -4.0227487280
-6.6864588813 2.0214837500 -4.8048552480
-2.8350168750 -0.1929087500 -6.4597821532
-6.2120500938 0.4434643750 -6.4554730228
-2.2282062500 -1.2874468750 -4.0290952080
-2.2130621875 2.1037750000 -4.0047713520
1.6641940625 -1.7595062500 -3.2308764000
-1.6591684375 0.9663443750 -3.2404479280
-1.6806818750 -1.8144925000 -5.6309519408
-1.1213996875 -1.3155581250 -3.9854210640
-0.5470540625 -1.9351746875 -5.6826472584
-0.5241968750 -1.3736618750 -3.2286098000
-1.0904396875 -1.8417571875 -4.8599919120
0.0043806250 -2.0655856250 -4.8475320880
0.0122684375 -1.4916028125 -4.0491837600
0.5848268750 -2.0959140625 -5.6525908472
1.1097896875 -2.2277359375 -4.7772415840
1.1333187500 -1.6011856250 -4.0746603440
-2.2349921875 -0.7149959375 -4.8196464320
-1.6886771875 -0.6438981250 -5.6680516496
-1.1412468750 -0.7807859375 -4.8545779760
-0.5330925000 -0.2609562500 -3.2316794240
-0.5462881250 -0.7870881250 -5.6432071232
-0.0158428125 -0.9104846875 -4.8076917360
0.5197625000 -1.0486625000 -5.6507490728
0.0318065625 -0.3223253125 -4.0694277360
1.1066990625 -1.0360312500 -4.8473766640
1.6883681250 -0.6013550000 -6.3795621279
1.1396075000 -0.4812237500 -4.0025306560
1.6436212500 -1.2079506250 -5.6589178992
-2.2332453125 0.4160787500 -4.8280134240
-2.2334065625 1.0088068750 -4.0594806000
-1.6503803125 0.4441900000 -5.6383837984
-1.0901037500 -0.2218800000 -4.0500385920
-1.1210100000 0.3785075000 -4.7764903680
-0.5987750000 0.2680781250 -5.6476444784
-0.0011018750 0.2559306250 -4.8502002000
0.5640928125 0.6954712500 -6.3872311366
0.0382028125 0.7884587500 -3.9945522240
0.5353096875 0.0979325000 -5.6715914312
1.1190615625 0.0231796875 -4.9097664480
1.7386378125 -0.0156412500 -5.6231095048
1.1213728125 0.5693065625 -4.0384983600
-1.6273618750 2.0681253125 -6.4190460409
-1.6897521875 1.4955937500 -5.6353076984
-1.1011090625 0.9859228125 -4.0779372000
-0.5505746875 1.9923378125 -6.4063896055
-1.1110125000 1.5556056250 -4.8505628560
-0.5578175000 1.3979837500 -5.6615238416
0.0153187500 1.3018115625 -4.9007777600
-0.0028353125 1.8564309375 -4.0650888160
0.6406328125 1.2878903125 -5.6369707352
1.1781865625 1.1228643750 -4.8401494480
1.7498850000 1.0773918750 -5.6533770336
1.6313662500 0.5194534375 -6.4738282086
-1.6964037500 -1.2389643750 -3.2096998800
-0.6107478125 -0.7988593750 -2.4192004640
0.5921100000 -1.5693790625 -3.2320420800
0.5087706250 -2.1239312500 -2.4208971760
1.6760728125 -1.2056259375 -2.4371907920
-1.6866750000 -0.6467334375 -2.4540024880
-0.5310634375 0.2851303125 -2.3695943040
-0.5738484375 0.8029040625 -3.2436729760
0.5493518750 -0.4954943750 -3.2251904720
1.6853581250 -0.6059237500 -3.1875390080
-1.6503803125 1.5274137500 -2.3899678000
-1.6582143750 -0.0858521875 -3.2552261600
-0.5251643750 1.9452931250 -3.2069540560
-1.6851296875 0.4276215625 -2.3751507120
-0.5582206250 1.3612321875 -2.4269716640
0.5834293750 0.6704909375 -3.1847413760
1.6817568750 0.5561915625 -3.1943388080
1.6974250000 -0.0396137500 -2.4282409600
-1.6659140625 2.0644434375 -3.2164737760
0.5551971875 1.8235628125 -3.1941445280
1.0784131250 1.7008381250 -4.0617472000
1.7516453125 1.1073978125 -2.3891777280
2.2204662500 -1.2912362500 -4.8832148480
2.2035215625 0.3962987500 -4.0653219520
1.6417131250 1.6332878125 -3.2710016960
1.6856403125 2.1789175000 -5.7102104096
2.2159243750 2.0886443750 -4.8366912640
-1.6788812500 -1.7922131250 -2.4201977680
-0.5689437500 -1.9325812500 -2.4414649520
0.5400934375 -1.0222981250 -2.3645818800
0.5732437500 0.0752634375 -2.4401697520
0.5678284375 1.2383328125 -2.4203920480
-1.0888675000 2.0916275000 -4.0100816720
1.7125959375 2.2029034375 -2.4581212240
0.6137040625 -0.4873243750 -6.4386848994
2.2161796875 -0.7554159375 -4.0358302480
-1.6810178125 -1.2339790625 -6.4214180702
1.7355203125 -1.7689125000 -6.4614037436
-0.5169406250 0.8292684375 -6.4424916218
-0.5983718750 -1.3370581250 -6.4530596766
6.6729818750 -0.7418171875 -4.0743106400
2.2896828125 1.0016043750 -4.7874736640
6.6958121875 0.9277653125 -4.8968662560
2.2831118750 -0.1836234375 -4.8282983680
2.8107621875 -1.9115650000 -6.3845856906
2.2595290625 -1.8499003125 -4.0013131680
3.3566203125 -2.0519600000 -4.0523310960
4.4274009375 -2.0630325000 -4.0768233280
5.5376340625 -2.0250715625 -4.0324627280
2.7909687500 -0.7516131250 -3.2253977040
2.8147262500 -1.3097800000 -5.6434117648
3.3523068750 -1.4639753125 -4.8323523440
3.3210646875 -0.8871034375 -4.0720699440
3.9300387500 -1.4540450000 -5.6293588448
4.4984315625 -1.4862546875 -4.8590982240
4.5017506250 -0.9531487500 -4.0198086240
5.0808531250 -1.5673634375 -5.6269886288
5.6576578125 -1.4733412500 -4.8575439840
6.0919175000 -0.8507550000 -6.4626767957
5.5871646875 -0.9157521875 -4.0305717360
6.2183643750 -1.4362403125 -5.6871364216
2.8571350000 -0.2205362500 -5.6218285520
3.4135818750 -0.2849825000 -4.7874866160
3.3593212500 0.3001400000 -4.0086699040
3.9124893750 -0.3707406250 -5.6882995112
4.4679956250 -0.3814503125 -4.8270938320
5.0810546875 0.1753190625 -6.4604041082
4.5249706250 0.1856525000 -4.0125943600
6.1914087500 -0.3179312500 -5.5965358864
5.5662156250 -0.3849440625 -4.9014771680
5.6580878125 0.1571784375 -4.0479274160
6.2021587500 0.2275909375 -6.4168035316
2.8003884375 0.8649315625 -5.6745276496
3.3547793750 0.8406634375 -4.8350463600
3.9625575000 1.3328790625 -6.4393498551
3.4446359375 1.4065031250 -4.0094081680
3.9244756250 0.7640831250 -5.6320114144
4.4811375000 0.7220909375 -4.8449805440
5.0650371875 0.7479446875 -5.6467572664
4.5104043750 1.3215915625 -4.0662933520
5.0064631250 -0.3758065625 -5.6773343480
5.5929965625 0.7355553125 -4.7972524240
6.1881703125 1.3558034375 -3.2642278000
6.1236568750 0.8371293750 -5.6708790712
2.8162178125 -1.9010165625 -3.2084823920
3.9120728125 -2.0035178125 -3.1921369680
4.9867234375 -2.1283790625 -3.2269519440
6.1312625000 -1.9626275000 -3.3022937280
2.8585459375 -0.2102431250 -2.3916774640
2.7878781250 -1.3293181250 -2.4361934880
3.8883153125 -0.9386362500 -3.2780605360
3.9429521875 -1.4458615625 -2.3644912160
5.0348700000 -0.9702681250 -3.1910619520
5.0751018750 -1.5551353125 -2.4497542320
6.1574656250 -0.8737062500 -3.2043118480
6.1921343750 -1.4356221875 -2.4057821920
2.8418834375 1.4450284375 -3.2562752720
2.7652493750 0.3255100000 -3.2611970320
3.9431268750 0.1638165625 -3.2667016320
3.9333175000 -0.3807650000 -2.4401308960
5.0951237500 0.1808553125 -3.2382719920
5.0079278125 -0.3874703125 -2.4350148560
6.1833059375 0.2805750000 -3.1905438720
6.1494703125 -0.3044803125 -2.4238761360
2.2635603125 1.5619078125 -3.9800330320
3.9939743750 1.3402159375 -3.1956728640
3.9036071875 0.7388743750 -2.4815902480
5.6171975000 1.3415328125 -4.0527844160
5.0921406250 1.8494703125 -2.4284222880
6.1798793750 0.8490753125 -2.3750211920
2.7827181250 2.0280278125 -5.6596367352
3.3380631250 1.9433312500 -4.8535936240
3.9342850000 1.8902800000 -5.5885794728
4.5236268750 1.8946337500 -4.8338159200
5.0737984375 1.8326600000 -5.6179831032
5.6523096875 1.9107990625 -4.8370409680
6.1957759375 1.9348925000 -5.6804790936
3.9348493750 1.9073053125 -2.3778576800
5.0717290625 1.2588921875 -3.2218747600
6.2005462500 1.9071709375 -2.4107946160
2.8483200000 0.8798337500 -2.4429932880
5.0410915625 0.7153856250 -2.3888150720
2.7480359375 1.9852025000 -2.4322301760
5.0490465625 -1.0053400000 -6.4049655331
2.8811075000 1.4502556250 -6.4341792872
3.8804812500 -2.0446768750 -6.4218925019
2.7614465625 -0.7530375000 -6.4717831526
3.9481390625 0.2205362500 -6.4504810630
5.0227896875 1.2990837500 -6.4757509602
-5.5956437500 6.6872525000 -4.8297489920
-6.1313243125 6.6028381250 -5.6985691520
-3.8687368750 3.0147165625 -3.1838476880
-6.1287134063 2.6797868750 -3.2768560000
-4.9686903125 2.8432943750 -6.4398904716
-5.5375655313 2.7448781250 -4.0254427440
-5.0409840625 2.2975168750 -5.6158900600
-4.4455281250 2.3850621875 -4.9005964320
-3.9305628125 3.0289200000 -6.4265031549
-4.4001093750 2.9258409375 -4.0501292560
-3.8334634375 2.4680656250 -5.6144808824
-3.2814778125 2.5527487500 -4.8002054800
-2.8390481250 3.1896056250 -6.4520542129
-2.7646581250 2.6156362500 -5.6785077992
-6.1431788750 3.2630818750 -5.6753410352
-5.5986550938 3.3276893750 -4.7748066080
-5.6337484688 3.9400631250 -4.0547272160
-5.1019634375 3.4237406250 -5.6806850304
-4.5278328125 3.4871118750 -4.8431672640
-3.8550306250 4.1566487500 -6.4262118644
-4.4485381250 4.0377134375 -4.0357913920
-3.9535409375 3.5921393750 -5.6193456536
-3.3577893750 3.6982687500 -4.9105435680
-2.7797887500 4.3245906250 -6.3998154294
-3.2910453125 4.2143762500 -4.0189796960
-2.7436418750 3.7432978125 -5.6319401784
-6.1415502500 4.3634787500 -5.6404069008
-5.5743439688 4.4945078125 -4.8611057840
-5.5902459063 5.0364690625 -4.0256370240
-4.9826250000 4.4894553125 -5.6229294720
-4.4415775000 4.6388668750 -4.7810235680
-3.8646115625 5.8260700000 -5.6151984232
-4.5192328125 5.2252525000 -4.0455312960
-3.9174343750 4.7560553125 -5.6861585456
-3.3782143750 4.7700975000 -4.8341915280
-3.3608262500 5.3489312500 -4.0358172960
-2.8042987500 4.9201809375 -5.6481211120
-6.7006852969 5.3762900000 -4.8228326240
-6.1670882188 5.4935321875 -5.6961173384
-5.6228842500 5.5951062500 -4.8724387840
-5.5909554063 6.1211843750 -4.0242123040
-5.0352596875 5.5990568750 -5.6381053304
-4.4708578125 5.7849109375 -4.8734101840
-4.9914265625 6.1716556250 -6.4067333516
-4.4694334375 6.3010990625 -4.0128663520
-3.9473462500 6.3802862500 -6.4662770890
-3.3264665625 5.9271871875 -4.7633440880
-3.3989484375 6.5683575000 -4.0724066960
-2.8233262500 6.0179440625 -5.6649211512
-6.1475595000 3.2059993750 -2.4173483280
-4.9782309375 2.8832709375 -3.2411214320
-5.0599040625 2.3114246875 -2.4462830960
-3.9124625000 2.4512687500 -2.3815101440
-3.3506003125 3.1451812500 -4.0815378560
-2.8045271875 3.1890546875 -3.2207349840
-6.1516915313 3.7628359375 -3.2189476080
-5.0366706250 3.9536350000 -3.2786951840
-5.0297234375 3.4120365625 -2.4035674000
-3.8867968750 4.1712418750 -3.2576870400
-3.9396465625 3.6111534375 -2.4491584400
-2.7449587500 4.3365500000 -3.1804672160
-2.8065025000 3.7437815625 -2.4107428080
-6.1779967813 4.9454165625 -3.2381295200
-6.1574347188 4.3646746875 -2.4842713120
-5.0330828125 5.0487509375 -3.1928234240
-5.0329350000 4.4805731250 -2.4152889600
-3.9270153125 5.2414581250 -3.2553297760
-3.9095062500 4.6977096875 -2.4040725280
-2.7920437500 5.4621421875 -3.2688775680
-2.8104934375 4.9159212500 -2.4346133440
-6.1826488438 6.5720931250 -2.3897217120
-6.1763305313 6.0384765625 -3.2428958560
-5.0451900000 6.2410871875 -3.2116944880
-5.0234078125 5.6601303125 -2.4634704000
-3.9080550000 6.3507237500 -3.1931990320
-3.8939456250 5.7966284375 -2.4176462240
-2.8272634375 6.5504453125 -3.2747577760
-2.7768862500 6.0079062500 -2.4184362960
-2.2551887500 6.0256571875 -4.8048163920
-2.7248293750 2.6463946875 -2.3724048880
-6.1081835938 5.4919196875 -2.3949931760
-5.0465740625 5.0477162500 -6.4495052593
-2.2540331250 4.9089606250 -4.8665326720
-6.7131738944 6.5204796875 -4.9029925520
-6.7081570844 4.2675753125 -4.8761689600
-6.6857418563 3.1742331250 -4.8418850160
-2.2371825000 4.3408365625 -4.0727823040
-2.1925565625 5.4456275000 -4.0254945520
-2.2387681250 6.6139240625 -4.0126720720
1.6273350000 6.6858953125 -2.4609836160
2.1730721875 6.5699162500 -4.8262649040
1.1953731250 2.2945471875 -4.7920586720
-2.1911053125 2.6567415625 -4.8351240720
-1.6714906250 3.2590775000 -6.4352590954
-2.2322240625 3.2288565625 -4.0160136880
-1.6689240625 2.6790209375 -5.6939232696
-1.0946859375 2.6157303125 -4.9032386400
-1.1067796875 3.1437031250 -4.0313618080
-0.4796515625 2.5652053125 -5.6335267984
0.0761100000 2.4271350000 -4.8395666080
-0.0187856250 2.9868740625 -4.0552452960
0.6364134375 2.3503396875 -5.6518694208
1.0772306250 3.3807943750 -4.8432708800
-2.1929596875 3.7536715625 -4.8638127520
-1.6053512500 3.8326975000 -5.6595305288
-1.0696921875 3.7111015625 -4.8179885760
-1.1469040625 4.2869656250 -4.0549733040
-0.5211465625 3.6370475000 -5.6674325440
0.6144565625 4.0520915625 -6.4225798646
0.0561284375 4.1283493750 -3.9729741920
0.0348031250 3.5968021875 -4.8012675440
0.5518243750 3.4585437500 -5.7020739632
1.2363440625 3.9451693750 -4.0554784320
1.6785587500 3.3537581250 -5.6221925032
-1.6387971875 5.4402659375 -6.4532851710
-1.6491306250 4.8791159375 -5.6182835896
-1.0867443750 4.8742112500 -4.8111758240
-0.5478468750 5.3560262500 -6.4201267558
-1.0604068750 5.4309671875 -4.0205986960
-0.5604781250 4.7509087500 -5.6898731792
-0.0209893750 4.6564431250 -4.8590205120
0.0522718750 5.2279803125 -4.0694406880
0.5719134375 4.6266790625 -5.6359695456
1.1320018750 4.4951259375 -4.8643178800
1.6518584375 4.9609100000 -6.4696415783
1.0922537500 5.0816325000 -4.0900343680
1.7342034375 4.4419940625 -5.6015755096
-1.6885428125 6.5936871875 -6.4453941650
-1.7294465625 6.0093843750 -5.6832158512
-1.1758081250 5.9790290625 -4.8841214880
-1.0958281250 6.5280450000 -4.0581076880
-0.5558287500 5.9067218750 -5.6093337576
0.0208953125 5.7911593750 -4.8773216880
0.5320981250 6.2239543750 -6.4740407121
-0.0560209375 6.3615006250 -4.0904488320
0.6225593750 5.7029421875 -5.6184688032
1.2048868750 5.6594181250 -4.8421311040
1.7045200000 6.1588496875 -6.4293682668
1.0625300000 6.2027500000 -3.9864960800
1.7166809375 5.5557075000 -5.7134212104
-1.6717056250 3.2395796875 -3.2202169040
-1.6448440625 2.6521593750 -2.4484201760
-0.5519453125 3.1073009375 -3.1913987040
-0.5355381250 2.5116568750 -2.4357790240
1.1737656250 2.8539234375 -3.9792559120
0.6439921875 2.3903162500 -2.4056785760
1.7675015625 2.7580603125 -3.2692013680
-1.6753068750 4.3355959375 -3.2045190800
-1.6499368750 3.7713821875 -2.3925452480
-0.5686750000 4.2062734375 -3.2767523840
-0.4826481250 3.6729121875 -2.4217520080
0.6565025000 4.0349990625 -3.2652639600
0.5900137500 3.4762812500 -2.4646490320
1.7665475000 3.8913656250 -3.1833684640
1.6446156250 3.3042678125 -2.4327871120
-1.6439168750 5.4410721875 -3.2370674560
-1.6496546875 4.9074959375 -2.4073493840
-0.4954540625 5.3152434375 -3.2343216320
-0.5513809375 4.7588234375 -2.4354034160
0.5877428125 5.1597715625 -3.1622437520
0.5263468750 4.5662371875 -2.4110666080
1.6255612500 4.9922328125 -3.2145180240
1.7489443750 4.4597718750 -2.3806164560
-1.6511059375 6.5664359375 -3.2419244560
-1.7240715625 6.0145578125 -2.4339527920
-0.5700456250 6.4411446875 -3.1570888560
-0.6052384375 5.8614778125 -2.3853180320
0.4695062500 6.2566478125 -3.2321716000
0.6249781250 5.7334990625 -2.3816008080
1.6762878125 6.1366106250 -3.3008172000
1.7497237500 5.5982506250 -2.4550904560
0.5480618750 2.9053890625 -3.2828657280
2.2295634375 3.2103262500 -4.8679832960
2.1870337500 4.9391143750 -3.9984119200
1.7386109375 2.7867359375 -6.4245598368
1.6869975000 3.8913118750 -6.4756952394
6.7123134375 2.6278912500 -4.0384336000
6.6699853125 3.7258156250 -4.0111048800
6.7096125000 4.8156237500 -4.0300925120
6.7032700000 5.9786259375 -4.0756187920
2.2684112500 5.4737521875 -4.8301375520
2.7690925000 6.5311759375 -5.5937408448
3.3555990625 6.4438187500 -4.8312773280