ITEM: TIMESTEP
104000
# source: voids-relax.104000.cfg
ITEM: NUMBER OF ATOMS
2298
ITEM: BOX BOUNDS pp pp pp
-6.7187500000 6.7187500000
-6.7187500000 6.7187500000
-6.4760000000 6.4760000000
ITEM: ATOMS x y z
-6.1471080000 -6.4999364375 -5.6648874760
-5.6200986563 -6.4421229375 -4.8148282880
-5.6086781250 -5.8647941875 -4.0522533840
-5.0671737500 -6.3348312188 -5.6353271264
-4.4699440625 -6.3303793750 -4.8980060320
-3.9324709375 -5.1384328125 -5.6649820256
-4.4775228125 -5.7906595000 -4.0638842800
-3.9000193750 -6.2763834688 -5.6637606520
-3.3268562500 -6.3423696563 -4.8898074160
-3.4065406250 -5.7863689063 -4.0563073600
-2.7336175000 -6.3662440625 -5.6593440200
-6.7098503706 -4.9225459375 -4.1125060880
-6.1392390000 -5.3665746875 -5.6576136328
-5.5907336875 -5.3069793750 -4.8426103280
-5.6597419688 -4.7273528125 -4.0705545600
-5.0430534375 -5.2169346875 -5.6928676816
-4.4979209375 -5.1992509375 -4.8477781760
-4.4988481250 -4.6376709375 -4.0572399040
-3.3335750000 -4.6376575000 -4.0624854640
-2.8513703125 -5.2931387500 -5.6966807504
-2.7745346875 -4.7314781250 -6.4739056875
-6.1712820625 -4.2861459375 -5.6554104976
-5.0104809375 -4.1171425000 -5.6741883072
-5.6041295313 -3.6258137500 -4.0778853920
-4.4827096875 -4.0540400000 -4.8227678640
-3.9392568750 -4.0974968750 -5.6906192144
-3.9292996875 -3.5169700000 -6.4612449521
-4.4868887500 -3.4810650000 -4.0490283360
-3.3925790625 -4.0605706250 -4.8385434000
-3.3709043750 -5.2086034375 -4.8296453760
-3.9281171875 -3.5246965625 -3.2497604160
-2.8542459375 -4.1657325000 -5.6888927128
-6.1764151875 -3.1648403125 -5.6729889520
-5.6215001875 -3.0570850000 -4.8513399760
-5.6062136875 -4.1811856250 -4.8908306240
-5.5376985625 -2.4845668750 -4.0561778400
-5.0547978125 -3.0079037500 -5.6467637424
-4.4602421875 -2.9461450000 -4.8894965680
-3.8924540625 -2.3456903125 -6.4155141600
-4.4335821875 -2.3955568750 -4.0467487840
-3.8972109375 -2.9421406250 -5.6888965984
-3.3381303125 -3.0025556250 -4.9060103680
-3.3620490625 -2.4599493750 -4.0470984880
-2.7345178125 -3.0004056250 -5.6676410712
-6.1797302188 -5.9850302500 -3.2829304880
-6.2044686563 -6.5098089688 -2.4008086240
-5.0413200000 -5.7610432500 -3.2474549600
-5.0805843750 -6.2947780625 -2.4030493200
-3.9486900000 -5.6943851875 -3.1989108640
-3.8959343750 -6.2809804375 -2.4327871120
-2.8463984375 -5.8540038750 -3.2638262880
-2.7731371875 -6.4011506563 -2.4060153280
-6.1747287813 -4.8582878125 -3.2053350560
-6.1437956563 -5.4402793750 -2.4413224800
-5.0639487500 -4.6779162500 -3.2806768400
-5.0449212500 -5.2150803125 -2.4052511600
-3.9170312500 -4.6278078125 -3.2810006400
-3.9163593750 -5.1425581250 -2.3985549760
-2.8154787500 -4.1619028125 -2.4767332480
-6.1513421563 -3.7251571875 -3.2259287360
-6.1493735625 -4.2884706250 -2.4186694320
-5.0652253125 -3.5710828125 -3.2412250480
-4.9861859375 -4.1473096875 -2.4352998000
-3.9108096875 -4.0680687500 -2.4376182080
-3.3372971875 -3.5164459375 -4.0042791760
-6.1237630313 -2.6055178125 -3.2754960400
-6.1809852813 -3.1538484375 -2.4330072960
-4.9959012500 -2.4606078125 -3.2244651600
-5.0390490625 -3.0307878125 -2.4147967840
-3.8948996875 -2.3316346875 -3.1930306560
-3.9178778125 -2.9414553125 -2.4763705920
-2.7896518750 -2.4503818750 -3.2348267600
-2.7561253125 -3.5815506250 -3.2135077680
-2.2683306250 -5.3229834375 -4.8571165680
-2.7999315625 -4.7509087500 -3.2291149280
-2.2753987500 -4.2740253125 -4.9197912960
-6.7088747141 -6.5937394594 -4.8089092240
-2.7741046875 -5.3127575000 -2.4379808640
-2.8082359375 -3.0100537500 -2.4184881040
-3.9769221875 -5.7043208750 -6.4563580330
-2.2603218750 -5.8876701875 -4.0523051920
-2.2472875000 -2.5792340625 -4.0900732240
-6.7088493038 -3.8286393750 -4.0684951920
-6.7054844866 -2.7030606250 -4.0048749680
-6.1936635625 -5.9689630313 -6.4481377871
-6.1565989063 -3.7052428125 -6.4461468057
-2.8024175000 -3.5747512500 -6.4300167734
-5.0027275000 -2.4534993750 -6.4728607331
-2.2193509375 -3.1762218750 -4.8282595120
-1.6326696875 -4.8642540625 -3.2216416240
-1.7258318750 -5.4679216563 -5.6936344400
-2.2039246875 -4.8006006250 -4.0088771360
-2.2219309375 -6.4840076250 -4.7944936480
-1.6870646875 -6.5870862844 -5.6834101312
-1.1412065625 -6.6287527469 -4.8110204000
-0.5361831250 -6.1393424688 -6.4148593069
-1.0849975000 -6.0802913750 -3.9876229040
0.0467759375 -6.3094289688 -4.0430704160
1.1060406250 -6.4192214063 -4.1034785440
-1.1746793750 -5.5579730625 -4.8915947920
-0.5538534375 -5.5650264063 -5.6415674000
-0.5162821875 -4.4909603125 -5.6138747288
-1.0879134375 -5.0217550000 -4.0525642320
-0.0336206250 -5.7499237188 -4.8446956000
0.0339700000 -5.1559150000 -4.1146172640
0.5873262500 -5.7719477813 -5.6176165616
1.1277556250 -5.8254895000 -4.8532309680
1.2044031250 -5.2780484375 -4.0224378800
1.6537934375 -5.4301555625 -6.4122163218
-2.2297784375 -3.7502181250 -4.0557504240
-1.6639925000 -4.2806231250 -5.6600265904
-1.1173953125 -4.4616262500 -4.8485812000
-1.1450496875 -3.8633081250 -4.1183474400
0.0430134375 -4.5466453125 -4.8052308560
1.1642921875 -4.1611637500 -4.0021032400
-0.0235828125 -3.9704721875 -4.0274891600
0.5711071875 -4.7146812500 -5.6823908088
1.7211556250 -4.2632484375 -6.4522658486
1.1118993750 -3.6607512500 -4.8553032880
1.1180806250 -4.7183362500 -4.8763632400
-1.6349003125 -3.2090496875 -5.6318274960
-1.0712240625 -3.2582040625 -4.8162530080
-0.5351484375 -2.8778287500 -6.4606490306
-1.0902918750 -2.6972421875 -4.0268674640
-0.5468256250 -3.4402284375 -5.6697392952
0.0307718750 -3.4236868750 -4.8535806720
0.5662025000 -3.5595803125 -5.7024586376
1.1800275000 -3.0720275000 -4.0715648160
1.7566843750 -3.1460412500 -6.4476295506
1.7226068750 -3.1127700000 -3.2209940240
1.6842965625 -3.6955678125 -5.6439285496
-1.7099756250 -6.0499562188 -3.2671549520
-1.6481765625 -6.5821605000 -2.4241222240
-0.5041615625 -6.1505574063 -3.2337776480
0.6196971875 -6.3114271250 -3.1958671440
1.6432046875 -6.5136910625 -3.2076275600
-1.6887309375 -5.4625600938 -2.5009405360
-0.5074403125 -5.0233540625 -3.2358240640
-0.6030884375 -5.5845564688 -2.4376311600
0.5654903125 -5.2618428125 -3.2799126720
0.5702471875 -5.7658565625 -2.3740627440
1.7771362500 -5.3965282188 -3.3609403840
1.7265440625 -5.9194928750 -2.4254951360
-1.6581203125 -3.7357459375 -3.2159686480
-1.6826975000 -4.3136121875 -2.4168043440
-0.6074959375 -3.9712650000 -3.2659374640
-0.4976040625 -4.4888775000 -2.3784146160
0.5840206250 -4.1362640625 -3.2966855120
0.6140803125 -4.6970109375 -2.4750106320
1.7711700000 -4.2262281250 -3.2076146080
1.6334893750 -4.8626818750 -2.4910193040
-1.6247281250 -3.2023443750 -2.3728452560
0.0785153125 -2.8852059375 -4.0041367040
-0.5060428125 -3.4088115625 -2.4552717840
0.6402431250 -2.9799537500 -3.2109821280
0.5363040625 -3.5806368750 -2.4806188480
2.1998531250 -6.3780341250 -4.0364648960
1.7170168750 -6.0071026875 -5.6589943160
-0.5665653125 -2.2877343750 -5.6994369360
-0.0224540625 -2.3467384375 -4.8745240560
0.5561512500 -2.4096393750 -5.6638033936
1.1297981250 -2.5251750000 -4.8815181360
1.7255765625 -2.5907768750 -5.6124513040
-1.7057562500 -2.6875940625 -3.2809747360
-0.5322728125 -2.8534396875 -3.2672974240
0.5293434375 -2.4338403125 -2.3937756880
1.6411890625 -3.7082931250 -2.4207028960
1.7291778125 -2.5750281250 -2.3952781200
1.7143696875 -4.8216303125 -5.6994213936
2.2070287500 -4.9601978125 -4.7893128480
-0.6056818750 -2.2871162500 -2.4755805200
0.5380778125 -6.3082787188 -6.4610093552
-1.6695018750 -4.8666728125 -6.4069659695
0.6223040625 -2.9765809375 -6.4469375253
0.5775840625 -4.1445415625 -6.4596209008
6.6586037500 -6.0001044375 -4.0577579840
6.6873196875 -3.2439871875 -4.8388024400
6.6998703125 -5.4902991250 -4.9356574960
6.0974134375 -5.5696260625 -5.6561060200
6.6366871875 -4.3472462500 -4.9204777520
3.3569562500 -6.5439603750 -3.9967281600
4.5008637500 -6.3766782813 -4.0794137280
5.5786856250 -6.2080175000 -4.0908762480
6.1905218750 -6.6853291906 -5.6494914336
2.8742006250 -4.3489796875 -6.4561146649
2.2635334375 -5.8938353125 -4.7796247520
3.4012462500 -6.0037836250 -4.8641106480
3.1900087500 -5.4304444688 -4.0747380560
3.9286412500 -5.9258824063 -5.6976314272
4.4463343750 -5.7657154688 -4.8065908160
4.4109131250 -5.1991837500 -4.0193941600
4.9915206250 -5.7042268125 -5.6689971456
5.5305793750 -5.5944693125 -4.8510420800
5.6439381250 -5.0366437500 -4.0762922960
2.2713137500 -4.4536040625 -4.0557504240
2.8103590625 -4.8954156250 -5.6317174040
3.4113512500 -4.8855659375 -4.8736303680
3.3303500000 -4.2993818750 -4.0789733600
3.9400900000 -4.8184590625 -5.6927653608
4.5199584375 -4.6191675000 -4.8636702800
5.0938337500 -3.9684296875 -6.4662715974
4.4503387500 -4.0429809375 -4.1772013280
5.0386459375 -4.6308446875 -5.7921603040
5.5296118750 -4.4472884375 -4.8633464800
6.1316521875 -3.8649340625 -6.4287907371
5.5963693750 -3.9194096875 -3.9947594560
2.2629690625 -3.8261534375 -4.8519616720
2.8672937500 -2.6395012500 -5.6406814832
2.2661000000 -3.2848237500 -4.0737796080
2.8374356250 -3.8088190625 -5.6134408368
3.4528328125 -3.7391859375 -4.8804431200
3.3608800000 -3.1996031250 -4.0066493920
4.0601137500 -3.6817271875 -5.5366730376
4.4982031250 -3.1277125000 -4.1786390000
4.9508721875 -3.4513278125 -5.5268049088
5.5576156250 -3.3875400000 -4.9009202320
6.1542809375 -3.2976834375 -5.6739383336
5.6096993750 -2.8530231250 -4.0248080960
6.0932343750 -4.4887968750 -5.6969579232
2.7542709375 -6.6357075938 -3.2543583760
3.9398884375 -6.4696751875 -3.2746671120
5.0410915625 -6.2456908750 -3.2214473440
6.1262100000 -6.1440415625 -3.2361219600
2.7289681250 -5.4559878125 -3.3101167360
2.8271693750 -6.0311275938 -2.4736506720
3.8530956250 -5.3547362500 -3.3083941200
3.8809515625 -5.8927710625 -2.4827300240
5.0709093750 -5.1664231250 -3.3386888480
4.9697250000 -5.6819985000 -2.4423456880
6.2012315625 -5.0204918750 -3.2209422160
6.1440684375 -5.5924899688 -2.4302355680
2.8433884375 -4.3466012500 -3.1790295440
2.8054678125 -4.9340350000 -2.4053936320
3.8989040625 -4.2543931250 -3.2554852000
3.9664275000 -4.8061100000 -2.4416851360
4.9838209375 -4.0794771875 -3.2691236560
5.0275196875 -4.6256712500 -2.4764871600
6.1869071875 -3.9155934375 -3.2582051200
6.0930596875 -4.4637359375 -2.4359085440
2.8162312500 -3.2375909375 -3.2330393840
2.8205043750 -3.7732500000 -2.3986715440
3.9823240625 -3.1314884375 -3.2362385280
3.9560537500 -3.6883518750 -2.4170892880
5.0014375000 -2.9145534375 -3.2240636480
5.1229931250 -3.4921240625 -2.4698686880
6.1396340625 -2.7409543750 -3.2409401040
6.1769903125 -3.3319087500 -2.4793495520
2.3143809375 -2.6795450000 -4.8469362960
3.4335500000 -2.6520921875 -4.8602898080
3.9889218750 -2.5551003125 -5.7004718008
4.5141937500 -2.5336943750 -4.8014877280
5.0782193750 -2.3100406250 -5.7041942056
2.8218346875 -2.6533687500 -2.4698945920
3.8685487500 -2.5790728125 -2.4283316240
5.0695387500 -2.3761665625 -2.3553212000
2.8042718750 -6.0186589375 -5.6630379304
5.6379853125 -2.2681021875 -4.8154370320
3.9450215625 -4.2120112500 -6.4494876446
6.1477368750 -6.1488925000 -6.4547427890
3.8881943750 -3.1669500000 -6.4398665104
2.8066771875 -5.4584401563 -6.4596504314
2.8261615625 -3.2401306250 -6.4002611077
5.0836481250 -2.9422078125 -6.4699196059
-6.6824848750 -2.1494221875 -4.8459908000
-6.1639451875 -2.0495681250 -5.6722468024
-5.5988889063 -1.9167384375 -4.8483869200
-5.6141888438 -1.3881071875 -3.9965079760
-5.0466412500 -1.8901187500 -5.6750301872
-4.4727256250 -1.8431950000 -4.8831371360
-4.4821050000 -1.3035315625 -4.0436273520
-3.8953834375 -1.7587671875 -5.6651763056
-3.3345693750 -1.8956818750 -4.8486459600
-3.3683646875 -1.3141875000 -4.0982847920
-2.7676815625 -1.9041609375 -5.6363322016
-6.1794547500 -0.9129168750 -5.6634407376
-5.5875369063 -0.8525690625 -4.8803006480
-5.6388197813 -0.3048700000 -4.0568513440
-5.0213518750 -0.7300996875 -5.6862595712
-4.4896971875 -0.7263909375 -4.8378180880
-4.5077571875 -0.1797265625 -4.0152236160
-3.9118712500 -0.6872878125 -5.6418355064
-3.3623850000 -0.7077262500 -4.8011380240
-2.7877706250 -0.2905053125 -6.4634639535
-3.3279446875 -0.1475975000 -4.0295744320
-2.8234875000 -0.8418325000 -5.6454128488
-6.1841095000 0.7467218750 -6.4395016526
-6.0932021250 0.1681031250 -5.6504149112
-5.5792862813 0.2873743750 -4.8195169120
-5.5962229063 0.8772000000 -4.0782091920
-5.0277884375 0.3917031250 -5.6681746936
-4.4769046875 0.3819743750 -4.8265239440
-3.9154993750 0.9591553125 -6.4715653777
-4.4759909375 0.9580668750 -4.0383170320
-3.9293265625 0.4039043750 -5.6578247504
-3.3769646875 0.4199621875 -4.8429729840
-2.7879721875 0.8441706250 -6.4428874349
-3.3380631250 0.9656456250 -4.0341335360
-2.8133556250 0.2726468750 -5.6570554016
-6.1100043750 1.8761034375 -6.4353136234
-6.7070244913 1.7800118750 -4.0413607520
-6.1795232813 1.3017175000 -5.6424701544
-5.6205340313 1.4465603125 -4.8642919760
-5.0654671875 2.0406725000 -6.4330094626
-5.5573455313 1.9849875000 -4.0209354480
-5.0224000000 1.4675093750 -5.6212690256
-4.4560631250 1.5191765625 -4.8356032960
-3.9514178125 2.0967203125 -6.4615578724
-4.4752384375 2.1008321875 -4.0765254320
-3.9115218750 1.5276153125 -5.6653265488
-3.3385468750 1.5251428125 -4.8618570000
-2.8019471875 2.0064606250 -6.4387545812
-2.7926081250 1.4186909375 -5.6770740128
-6.2153127188 -1.4599978125 -3.2533092640
-6.1146120938 -2.0378371875 -2.4713970240
-5.0227762500 -1.3074150000 -3.2285838960
-5.0624303125 -1.8863159375 -2.4590926240
-3.8994281250 -1.2381178125 -3.2415618000
-3.9073696875 -1.7700815625 -2.3965215120
-2.8203028125 -1.3795609375 -3.2724652720
-2.7330665625 -1.9137687500 -2.3962365680
-6.1901321875 -0.3538496875 -3.1979524160
-6.0920774063 -0.9190309375 -2.4013785120
-5.1020575000 -0.1575681250 -3.2406163040
-4.9859978125 -0.7385384375 -2.4616571200
-3.9246503125 -0.1552837500 -3.2797961040
-3.8973721875 -0.6630868750 -2.4155609520
-2.7538946875 -0.2673525000 -3.2567674480
-2.8027803125 -0.8244578125 -2.4509587680
-6.1254937813 0.7481462500 -3.2158002720
-6.1822833438 0.2096250000 -2.3748657680
-5.0553621875 0.9350484375 -3.2334538480
-4.9748581250 0.3712512500 -2.4047071760
-3.9184556250 1.0045740625 -3.2441392480
-3.9074771875 0.4274065625 -2.4765778240
-6.1477073125 1.8952384375 -3.2600831600
-6.1841014375 1.3318981250 -2.4448195200
-4.9844121875 2.0540428125 -3.2113059280
-5.0808665625 1.4806512500 -2.4097325520
-2.8380403125 1.9794243750 -3.1962945600
-3.9265853125 1.5374918750 -2.3882581360
-2.7831884375 0.8510909375 -3.2085860080
-2.7732178125 1.4151165625 -2.4094476080
-2.2732084375 1.8884793750 -3.9965209280
-3.3755000000 2.0852043750 -4.0503364880
-3.9234812500 2.1001871875 -3.2081715440
-2.8401096875 0.2781428125 -2.4198221600
-2.2464409375 0.2532968750 -4.8639811280
-6.7113472141 -0.4229587500 -4.0944380480
-6.6777907531 0.6707731250 -4.0319705520
-6.1495697500 -1.4626853125 -6.4668468993
-5.0430534375 -1.3136500000 -6.4397490358
-5.0162321875 -0.1728062500 -6.4756425390
-2.2175637500 -1.4105209375 -4.0311157200
-2.2392384375 -0.8543965625 -4.8504203840
-2.2172009375 1.3519468750 -4.8853519280
1.6751859375 -2.0198846875 -3.2344511520
-1.7021012500 0.6858365625 -3.1856868720
-2.1997590625 -1.9853503125 -4.8082227680
-1.6555134375 -1.5909059375 -6.4605055224
-1.6701737500 -2.1519215625 -5.6511454040
-1.0500600000 -1.5909596875 -4.0103795680
-0.4773671875 -1.6944015625 -3.2139222320
-1.1039309375 -2.1283253125 -4.8373906720
0.0611003125 -1.7921996875 -4.0651147200
1.1147078125 -1.9563790625 -4.0621357600
-1.6545325000 -0.4425103125 -6.4362307545
-2.1847359375 -0.3094925000 -4.0421249200
-1.6919828125 -1.0191134375 -5.6755547432
-1.1283065625 -1.0397131250 -4.8634112400
-0.5219662500 -0.5536518750 -6.4209234333
-0.5599675000 -0.5802984375 -3.1797807600
-0.5659875000 -1.1402390625 -5.6597571888
0.0157890625 -1.2371771875 -4.8871652080
0.6112584375 -1.2650062500 -5.6264990432
-0.0179390625 -0.6858231250 -4.0489894800
0.6147253125 -1.8208618750 -6.4248621365
1.2007078125 -1.4130068750 -4.8784485120
1.0970240625 -0.8682506250 -4.0308696320
1.7866500000 -1.4729918750 -5.6623190944
-1.6684940625 0.7237303125 -6.4068341182
-2.2330975000 0.8122028125 -4.0535615360
-1.6770671875 0.1266215625 -5.6629252480
-1.0897409375 -0.4814387500 -4.0596230720
-0.5956440625 0.5783231250 -6.4557896992
-1.0906815625 0.0597296875 -4.9014383120
-0.4892056250 0.0114621875 -5.6492544120
0.0596625000 -0.1360143750 -4.8585024320
-0.0297909375 0.4145200000 -4.0303645040
0.6529415625 -0.1375462500 -5.6585915088
1.1599787500 -0.2939453125 -4.7918643920
1.7019131250 -0.3695043750 -5.6863865008
1.1507606250 0.3086459375 -4.0686894720
-1.6355587500 1.3044587500 -5.6547408792
-1.1534750000 0.5937493750 -4.0185134240
-1.0812215625 1.1328887500 -4.8562358320
-0.5023340625 1.1439343750 -5.6613114288
0.0077400000 1.0019806250 -4.7787958240
0.0328815625 1.6075684375 -4.0635475280
0.5395021875 0.9163300000 -5.6788587984
1.0914743750 0.8940775000 -4.8237910720
1.6341881250 0.7559131250 -5.6418717720
1.0968896875 1.9810503125 -4.9157114160
-1.6466850000 -1.5640578125 -3.2676989360
-0.5629371875 -1.1512846875 -2.3911205280
0.5882668750 -1.8595753125 -3.1757138320
1.7298631250 -1.4478637500 -2.4493656720
-1.7214378125 -1.0161571875 -2.4402992720
-0.4968246875 0.0106962500 -2.4426047280
-0.5721956250 0.5771137500 -3.2309023040
0.5482903125 -0.7070946875 -3.2366788960
1.7073150000 -0.9039675000 -3.2876709200
-1.6516837500 1.2870975000 -2.4647396960
-1.6308959375 -0.4363559375 -3.1948568880
-0.5285103125 1.6818509375 -3.2793298320
-1.6693540625 0.1234906250 -2.3889316400
-0.5777453125 1.1423084375 -2.4273861280
0.5820721875 0.3893515625 -3.2854431760
1.6820121875 0.1896568750 -3.2209551680
1.6729687500 -0.3776743750 -2.4042020480
-1.6784243750 1.8703925000 -3.2329228160
0.5663771875 1.4402984375 -3.2221726560
1.1534212500 1.4574581250 -4.0226839680
1.6690315625 0.7535346875 -2.4127503680
2.2330168750 0.7088550000 -4.8935375920
1.6865809375 1.3194684375 -3.1952843040
-0.6273162500 2.2054296875 -5.6585940992
-0.0488184375 2.1771706250 -4.8438666720
0.4989881250 2.0256628125 -5.6499473440
1.7044125000 1.8950637500 -5.6518940296
0.5474034375 2.0162162500 -2.4340175520
2.2342800000 1.8429531250 -4.8059950240
-1.6470746875 -2.1259468750 -2.4618125440
0.6276925000 -1.2696959375 -2.4290310320
0.5929968750 -0.1552703125 -2.4230342560
0.5177603125 0.9093425000 -2.3770028480
-1.1402256250 1.6825362500 -4.0274244000
1.6935415625 1.9043759375 -2.4478243840
-0.5102487500 -1.7036196875 -6.4415892559
2.2218234375 -2.1174140625 -4.0700753360
2.2380021875 1.2401603125 -4.0475906640
-0.6052115625 2.2034006250 -2.3686876640
1.6807893750 -2.0353646875 -6.4413381166
-1.7047484375 1.8606368750 -6.4749847640
1.6949928125 1.3163643750 -6.4326737467
0.5540818750 -0.7112468750 -6.4503014187
6.7025443750 0.1549075000 -4.9074091840
6.6746078125 1.2250968750 -4.8661959200
2.2496928125 -0.3854815625 -4.8637998000
2.3100137500 -1.5130356250 -4.8015654400
6.6762471875 -1.5842543750 -4.0793101120
6.7079059375 -1.0019000000 -4.8398645040
3.3963146875 -2.1097143750 -4.0291470160
4.5073943750 -1.9063378125 -4.0501292560
5.6142681250 -1.6899806250 -4.0909928160
6.1529506250 -2.2029437500 -5.6591069984
2.8630206250 -1.0360178125 -3.2534517360
2.8568125000 -1.5605506250 -5.6781904752
3.3947290625 -1.5472609375 -4.8136755600
3.4232300000 -0.9399934375 -4.0902027440
3.9604209375 -1.4501078125 -5.6133281544
4.5940931250 -1.4062343750 -4.9963376160
4.4990496875 -0.8709381250 -4.0496759360
5.0420053125 -1.7525859375 -6.3686285676
5.4813846875 -1.1533809375 -5.0431202400
5.6520140625 -0.6523234375 -4.0774450240
6.1566459375 -1.1499946875 -5.6303872336
2.2811634375 -0.9281415625 -4.0338874480
2.2650787500 0.1771734375 -4.0275798240
2.8283518750 -0.4796918750 -5.6576330608
3.3732693750 -0.3590096875 -4.8563912560
3.3225965625 0.1686809375 -3.9986450560
3.9577871875 -0.3804693750 -5.6433508904
4.4888371875 -0.2660087500 -4.7957629440
4.4667056250 0.3170040625 -4.0664099200
6.1786162500 -0.0026471875 -5.6688987104
5.5970278125 -0.0547578125 -4.8478299840
5.6266978125 0.4752978125 -4.0295355760
6.1988531250 0.5574815625 -6.4186096880
2.8096603125 0.7335128125 -5.6376494200
3.3953606250 0.7101046875 -4.8873206320
3.9011615625 1.3632612500 -6.4201588767
3.3752581250 1.2323128125 -4.0369441200
3.9734956250 0.7616106250 -5.6767748216
4.5022746875 0.8907987500 -4.8466643040
5.0706675000 0.8947090625 -5.6956691992
4.4709653125 1.4422468750 -4.0109106000
5.0296696875 -0.1697425000 -5.6705591568
5.5846921875 1.0591437500 -4.8149966640
5.5777046875 1.6414578125 -4.0514374080
6.1136056250 1.1796243750 -5.6794416384
2.7924334375 -2.0841025000 -3.2903778880
3.9688596875 -2.0371384375 -3.2534905920
5.0878137500 -1.8699087500 -3.2380518080
6.1422543750 -1.6433928125 -3.2066950160
6.2498887500 -2.2013178125 -2.4094476080
2.7998106250 -0.4796918750 -2.4481740880
2.8138528125 -1.5837706250 -2.3901102720
3.9320678125 -0.8722953125 -3.2282860000
3.9509743750 -1.4606025000 -2.4729771680
5.0770100000 -0.6909696875 -3.2885646080
5.0140553125 -1.2754068750 -2.4888951760
6.2007612500 -0.5420015625 -3.2219265680
6.1392981250 -1.0857634375 -2.3795414400
2.7964243750 1.3176140625 -3.2399428000
2.7899475000 0.1248478125 -3.1558066080
3.9246637500 0.2126081250 -3.2414452320
3.9683893750 -0.3275793750 -2.4046683200
5.0252084375 0.4008540625 -3.2760788800
5.0567462500 -0.1607662500 -2.4450267520
6.1781190625 0.5941659375 -3.2529725120
6.1125978125 0.0251415625 -2.4439905920
3.9168565625 1.3727212500 -3.2002449200
3.9413665625 0.7882840625 -2.4427083440
5.0487912500 1.4937393750 -3.2011645120
5.0735296875 0.9302512500 -2.4034767360
6.1462587500 1.6979625000 -3.2611711280
6.1890706250 1.1415693750 -2.4283963840
2.7855131250 1.8435578125 -5.6450799824
3.3367865625 1.8158631250 -4.7951671520
3.8581750000 1.9385206250 -5.6317510792
4.4931103125 1.9503187500 -4.9285338960
5.0650103125 2.0769403125 -5.6799415856
5.6196968750 2.2025943750 -4.8707938800
3.9013631250 1.9535437500 -2.4297822480
5.0392371875 2.0890475000 -2.4671358160
6.1884793750 2.2282600000 -2.3979721360
2.8251940625 0.7421531250 -2.4542226720
2.8057903125 1.8453315625 -2.3674701760
5.0988996875 -0.8487259375 -6.2531388216
2.7959137500 1.2683521875 -6.4715132329
4.9923940625 1.4856634375 -6.4441273298
2.8288893750 0.1381912500 -6.3936055930
3.9006375000 0.1851150000 -6.4434761033
-3.9594265625 3.2066846875 -3.2163701600
-6.2188884375 2.4527334375 -5.6707897024
-5.6460706563 2.5332643750 -4.8554198560
-5.0282050000 3.1344581250 -6.4716383492
-5.6080868750 3.0979753125 -4.0665523920
-5.0666228125 2.6083665625 -5.6174404144
-4.4736259375 2.6660537500 -4.8685790880
-3.9537693750 3.2497250000 -6.4098178704
-4.5007159375 3.2143171875 -4.0527844160
-3.9080281250 2.6431696875 -5.6560088800
-3.3293825000 2.6363165625 -4.8678408240
-2.8527006250 3.1582425000 -6.4695519634
-2.7716859375 2.5769228125 -5.6818338728
-6.1806063438 4.1417062500 -6.4296758768
-6.1439286875 3.5309718750 -5.6946019544
-5.6277701250 3.6951646875 -4.8230657600
-5.6486318438 4.2606818750 -4.0484714000
-5.0646206250 3.7095562500 -5.6472222432
-4.4969400000 3.7879371875 -4.8419368240
-4.4989959375 4.3378534375 -4.0202101360
-3.9286412500 3.8126218750 -5.6434609824
-3.3751640625 3.7112359375 -4.8428175600
-3.3455343750 4.2667421875 -4.0297557600
-2.7971096875 3.7086021875 -5.6583972288
-6.1706545313 4.7204728125 -5.6786709944
-5.5958547188 4.8014337500 -4.8954026800
-5.6260259375 5.3252543750 -3.9988652400
-5.0094731250 4.8104771875 -5.6907837048
-4.5066150000 4.9125753125 -4.8104116560
-3.9605956250 5.9769193750 -5.6628850968
-4.4885953125 5.4861012500 -4.0200029040
-3.9416487500 4.9047815625 -5.6647191000
-3.4116065625 4.8539743750 -4.7948044960
-2.7786600000 5.3487296875 -6.4437084622
-3.3416240625 5.4442971875 -4.0772248400
-2.8800190625 4.7835350000 -5.6475382720
-6.2121414688 5.8834212500 -5.6728412992
-5.6275040625 5.8485912500 -4.8812461440
-5.5693049063 6.4079675000 -4.0560612720
-5.0849918750 5.9831006250 -5.7063066768
-4.5337990625 6.0083631250 -4.8738635040
-4.4832606250 6.5758153125 -4.0396251840
-3.9161309375 6.5829506250 -6.4173121566
-3.4021196875 6.0130393750 -4.8659109760
-2.8535875000 6.4840506250 -6.4161219974
-3.3952128125 6.5590587500 -4.0355453040
-2.8129793750 5.9094631250 -5.6309674832
-6.1814045313 2.9822246875 -3.2634247760
-6.1519092188 2.4290028125 -2.4191098000
-5.0691759375 3.1720831250 -3.2366788960
-5.0758543750 2.6157437500 -2.4261297840
-3.9218284375 2.6681634375 -2.3861340080
-3.3924178125 3.1675143750 -3.9915991680
-2.7908209375 3.1522896875 -3.2278197280
-6.1802341250 4.0821378125 -3.1978358480
-6.1461257188 3.5165400000 -2.4053288720
-5.0766875000 4.2544603125 -3.2561328000
-5.0094731250 3.7272131250 -2.3962236160
-3.9113471875 4.3734762500 -3.2531797440
-3.9329278125 3.8014418750 -2.4658794720
-2.7681921875 4.2730981250 -3.2441522000
-2.8561271875 3.7175784375 -2.4332274800
-6.2062235938 5.2880459375 -3.1952713520
-6.1569885938 4.6880346875 -2.4723425200
-5.0540184375 5.4012300000 -3.2216934320
-5.0400165625 4.8184321875 -2.4484849360
-3.9018200000 5.4585946875 -3.2513923680
-3.9710096875 4.9090143750 -2.4127762720
-2.8237965625 5.3547362500 -3.2105417600
-2.8323428125 4.8083406250 -2.3803056080
-6.1563503125 6.4017862500 -3.2729833520
-6.2038612813 5.8554443750 -2.4188248560
-5.0436850000 6.5775756250 -3.1913080400
-5.0652387500 5.9780212500 -2.4660737520
-3.9407215625 6.5788118750 -3.1974731920
-3.9243681250 6.0009590625 -2.4089683840
-2.8274918750 6.4856362500 -3.2206831760
-2.7975934375 5.9237606250 -2.4046035600
-2.2738668750 3.5655734375 -4.7817100240
-2.2503378125 5.2780081250 -4.0446505600
-2.3026903125 6.3637178125 -4.0600504880
-2.7911568750 2.5748803125 -2.4630559360
-5.0869537500 5.3944306250 -6.4477121844
-2.2516815625 2.9830443750 -4.0182284800
-2.2814725000 4.7312765625 -4.8755602160
-6.7114547275 5.0707346875 -4.0546365520
-6.1850353438 5.3059312500 -6.4526990930
-0.6298021875 6.6939846875 -5.7008992168
0.5225306250 6.5716093750 -5.6616572472
-2.2258815625 5.8216625000 -4.8951695440
-0.0740271875 6.5927062500 -4.8925143840
1.0724871875 6.4393575000 -4.8638516080
1.6909212500 6.3980371875 -5.5910973416
-0.5829993750 6.7054468750 -2.4844008320
0.4880500000 6.5366584375 -2.4296268240
1.6584293750 6.3972846875 -2.3741793120
-2.2296978125 2.4280218750 -4.8416130240
-1.6669353125 2.4289221875 -5.6664028600
-1.1467293750 2.2794971875 -4.7709469120
-0.5828246875 3.8872268750 -6.4011494854
-1.0840568750 2.8818331250 -4.0753856560
0.5598465625 2.6148300000 -6.3917596739
0.0320350000 2.7364662500 -4.0406224880
1.6174584375 2.4582696875 -6.4481171934
1.1485971875 3.0609818750 -4.8454986240
-1.6436212500 4.0408309375 -6.4535597534
-2.2118259375 4.1682856250 -4.0710208320
-1.7501134375 3.4734325000 -5.6639471608
-1.1779581250 3.4657865625 -4.8438019120
-1.1088221875 4.0182962500 -4.0279683840
-0.6305412500 3.3046306250 -5.6400610824
-0.0538978125 3.7928284375 -4.0413996080
-0.0216478125 3.2704859375 -4.9158538880
0.5823275000 3.2058918750 -5.6243788008
1.0774859375 3.6380284375 -4.0626408880
1.7170168750 3.0225506250 -5.6527605184
-1.7283850000 5.1907315625 -6.3945146938
-1.7150953125 4.5966193750 -5.6352701376
-1.1084459375 4.5448312500 -4.9199208160
-1.1880496875 5.0754378125 -4.0448707440
-0.5035165625 4.4746606250 -5.6459969840
0.0312825000 4.3725625000 -4.8179756240
-0.0679803125 4.9430918750 -4.0399489840
0.5881056250 4.3043268750 -5.6667318408
1.1171803125 4.2403106250 -4.7819949680
1.1209696875 4.8275696875 -3.9990854240
1.6326696875 4.1321925000 -5.6672343784
-1.6220675000 5.7723603125 -5.6423302728
-1.0829953125 5.6438843750 -4.8206955440
-1.1630156250 6.2257550000 -4.0424746240
-0.5444337500 5.5703678125 -5.6857414912
0.0045956250 5.5274753125 -4.8050495280
0.5944481250 5.9865003125 -6.4195658046
-0.0017871875 6.0779828125 -3.9840999600
0.5110146875 5.3884509375 -5.6952353072
1.0655131250 5.3488775000 -4.8508996080
1.1371484375 5.9200653125 -4.0142910720
1.6395362500 5.2936493750 -5.6468259120
-1.6382193750 2.9645275000 -3.2649660640
-1.7150818750 2.4247834375 -2.4212080240
-0.5528859375 2.7311046875 -3.2266540480
1.0924284375 2.5068059375 -4.0246138160
1.6658603125 2.4829946875 -3.2142330800
-1.6918350000 4.0213331250 -3.2146734480
-1.7173528125 3.4911296875 -2.3613438800
-0.5798281250 3.8806290625 -3.1769701760
-0.5681778125 3.2986643750 -2.4197574000
0.5280937500 3.7631181250 -3.2314462880
0.5804596875 3.1944296875 -2.4287590400
1.6399796875 3.5879871875 -3.2573891440
1.7155253125 3.0365525000 -2.4187471440
-1.7185621875 5.1855312500 -3.1812054800
-1.6815150000 4.5954503125 -2.4220628560
-0.6229490625 5.0296159375 -3.2214473440
-0.5452534375 4.4601884375 -2.4228270240
0.5001706250 4.8247612500 -3.2751851920
0.5935612500 4.3090837500 -2.3941642480
1.6878709375 4.7129209375 -3.2453567360
1.6762340625 4.1458181250 -2.4452080800
-1.7316771875 6.3006153125 -3.2460172880
-1.6695018750 5.7522040625 -2.4057562880
-0.6112046875 6.1165753125 -3.2520270160
-0.5205687500 5.5768178125 -2.4077897520
0.5706906250 5.9740034375 -3.2237009920
0.5594703125 5.3913265625 -2.4688195760
1.7234937500 5.8578765625 -3.2316664720
1.6223631250 5.2840281250 -2.4467234640
2.2070287500 2.4157265625 -4.0411017120
2.2298725000 3.5600506250 -4.0109624080
2.1854615625 5.1798337500 -4.8426362320
0.5504403125 2.6116990625 -3.1749237600
2.2081171875 4.0871768750 -4.8703664640
-0.4971337500 2.7551175000 -6.4690422374
1.7112790625 4.7160921875 -6.4317735827
1.6614528125 5.8505262500 -6.4621488722
6.1832521875 2.2510768750 -5.7075008512
6.6897653125 4.0243565625 -4.0082165840
6.7079865625 5.6690528125 -4.8027958800
2.2701178125 4.6450212500 -4.0261162480
2.2410793750 5.7927181250 -4.1051364000
2.2432025000 6.3979700000 -4.7699625600
2.7558431250 6.3069040625 -5.6572872424
3.3276356250 6.3682865625 -4.8343858080
3.8581615625 6.3751262500 -5.6832819064
4.4392528125 6.4773453125 -4.8885251680
5.0073903125 6.6287187500 -5.6344943128
5.6068237500 6.6777790625 -4.9014383120
2.8091765625 6.3180303125 -2.3987233520
3.8930184375 6.4242806250 -2.4441071600
5.0454990625 6.5885003125 -2.4637942000
6.1662268750 6.7107950000 -2.4466328000
6.7003406250 2.3639518750 -4.8064224400