ITEM: TIMESTEP
3000
# source: voids-relax.3000.cfg
ITEM: NUMBER OF ATOMS
2298
ITEM: BOX BOUNDS pp pp pp
-6.7187500000 6.7187500000
-6.7187500000 6.7187500000
-6.4760000000 6.4760000000
ITEM: ATOMS x y z
-6.0523937813 -6.6298985625 -5.6353025176
-5.6416188125 -6.1989203125 -4.0335377440
-3.8417543750 -6.4281775000 -6.4682854909
-4.4071371875 -6.3066662188 -4.0088123760
-2.7748571875 -6.5879833719 -6.4724123737
-3.2794353125 -6.4703094375 -4.0539889520
-6.6539309938 -5.4690006875 -4.8257856800
-6.1355100938 -5.5491365625 -5.7338879608
-5.6139523438 -5.6059664375 -4.7887947680
-5.5392465625 -5.0247784375 -4.0098614880
-5.1097571875 -5.7147483750 -5.7081510416
-4.5586046875 -5.7776573750 -4.8748737600
-4.4347109375 -5.2084556250 -4.1017818320
-3.9677712500 -5.8839090313 -5.6230369736
-3.3579237500 -5.9494840313 -4.9246482960
-3.3966506250 -5.3909946563 -4.0994504720
-2.7501456250 -6.0263989375 -5.6532643512
-6.1521658750 -3.8491315625 -6.4496393125
-6.2682134688 -4.4257346875 -5.6971703360
-5.7094325000 -4.5105387500 -4.8954285840
-5.6022523125 -3.9336937500 -4.1131407360
-5.1097168750 -4.5913653125 -5.6178406312
-4.4995468750 -4.6435700000 -4.9161776880
-4.5688037500 -4.0980075000 -4.0841671120
-3.9068859375 -4.7550071875 -5.6448248280
-3.3139293750 -4.8249225000 -4.8822175440
-3.4451196875 -4.2781506250 -4.0414902720
-2.7771684375 -4.8755415625 -5.7180955872
-6.2219978750 -3.2998065625 -5.5988335712
-5.6062015938 -3.3609740625 -4.9063600720
-5.7267346250 -2.8028609375 -4.0794137280
-5.0306371875 -3.4779206250 -5.6675452264
-4.4512121875 -3.5214850000 -4.8651986160
-4.5886106250 -2.9940093750 -3.9923244800
-3.9309121875 -3.6247387500 -5.7441498304
-3.4071856250 -3.7220531250 -4.8303188800
-3.3967312500 -3.1598684375 -4.0078668800
-2.8524990625 -3.7377346875 -5.6716691432
-6.2077474063 -6.0674652813 -3.2500324080
-6.0795751563 -6.6200062781 -2.4329166320
-5.0347490625 -6.2717166250 -3.3311119280
-3.8442671875 -6.4513464375 -3.2409530560
-2.7337384375 -6.5703260938 -3.1992217120
-6.1679630000 -4.9908756250 -3.3245323120
-6.0975343750 -5.5101033125 -2.4379031520
-4.9769006250 -5.1602418750 -3.2347620000
-5.0803425000 -5.7333835000 -2.4630300320
-3.9155396875 -5.2957187500 -3.1799232320
-3.9823912500 -5.8919930313 -2.4290180800
-2.8749262500 -5.4439666250 -3.2062416960
-2.7781225000 -6.0035296563 -2.4043704240
-6.1300423750 -3.8670706250 -3.2175358400
-6.2676423750 -4.4444665625 -2.4617089280
-5.0819012500 -4.0228246875 -3.1737710320
-5.1532275000 -4.5981646875 -2.4160790320
-4.0184978125 -4.2047415625 -3.2423907280
-3.9307375000 -4.7337490625 -2.3676385520
-2.8712040625 -4.3104543750 -3.2662483120
-2.7550368750 -4.8650737500 -2.4411670560
-6.2527065938 -2.7400675000 -3.1823193520
-6.2752076875 -3.3140637500 -2.3873644480
-5.1885412500 -2.9178590625 -3.2522860560
-5.0430803125 -3.4404434375 -2.3915738480
-3.9912868750 -3.0608878125 -3.2765062960
-3.9225137500 -3.6322234375 -2.4807095120
-2.7933606250 -3.1927500000 -3.2740324640
-2.8730853125 -3.7541015625 -2.4523057760
-2.3088715625 -5.4635625313 -4.0207152640
-2.2794300000 -4.3924365625 -4.0161820640
-2.3072590625 -3.8496018750 -4.8439443840
-2.2442103125 -3.2655946875 -4.0988676320
-5.0788375000 -2.3199978125 -5.7417083784
-4.5486071875 -2.4638731250 -4.8590982240
-3.9810878125 -2.4630668750 -5.6914455520
-3.4474443750 -2.6168187500 -4.8462627920
-2.8750875000 -2.6935334375 -5.6526361792
-5.0729384375 -2.3394284375 -2.4903069440
-4.0029237500 -2.5041721875 -2.4802691440
-2.9149162500 -2.6575881250 -2.4217908640
-2.3246068750 -2.6522400000 -4.8078860160
-6.6711183625 -6.5927602688 -4.9326655840
-6.6667490250 -3.7541284375 -4.0320223600
-5.5945902500 -2.2400446875 -4.8557307040
-4.9710150000 -5.1344821875 -6.4638816943
-3.9299850000 -5.3346203125 -6.4474597499
-2.8564362500 -5.4670280625 -6.4535329427
-5.1170134375 -4.0472540625 -6.4533095207
-5.1426521875 -2.9147146875 -6.4649754001
-2.2181818750 -4.9368971875 -4.8822434480
-2.2105225000 -6.5959612156 -4.0765383840
-0.5160537500 -6.4398009375 -6.4336179475
-1.0735487500 -6.5336981563 -4.0432906000
0.0078475000 -6.2959444375 -4.0679641600
1.0866503125 -6.1444205000 -4.0795302960
-2.1934568750 -6.0136239063 -4.8521041440
-1.6636296875 -5.9853084063 -5.7263382400
-1.1406825000 -5.9433310000 -4.8203328880
-1.1191153125 -5.3874283438 -4.0088123760
-0.6051578125 -5.8558125625 -5.6615860112
-0.0363887500 -5.7331980625 -4.8850669840
0.0530512500 -5.1895893750 -4.0318280800
0.5669818750 -5.7019424375 -5.6180128928
1.1433968750 -5.5707615313 -4.8746276720
1.6242846875 -4.9265637500 -6.4448352862
1.1329425000 -5.0100240625 -4.0631460160
1.7339481250 -5.4833290938 -5.6341731032
-1.6578515625 -4.8704353125 -5.6926980104
-1.1357912500 -4.8268575000 -4.8152168480
-1.1959240625 -4.2568790625 -4.0277870560
-0.5943271875 -4.7640237500 -5.6990457856
-0.0699153125 -4.6243812500 -4.8121213200
-0.0546771875 -4.0498609375 -4.0310121040
0.4777434375 -4.5608756250 -5.6632840184
1.0358700000 -4.4477990625 -4.8793810560
1.6812193750 -3.8260593750 -6.4615052873
1.1133909375 -3.9189931250 -4.0321130240
1.6364590625 -4.3694046875 -5.6124720272
-1.7419971875 -3.7313653125 -5.6303626248
-1.1384921875 -3.7316743750 -4.9116315360
-0.6358087500 -3.0343218750 -6.4122872987
-1.1476565625 -3.1875496875 -4.0641692240
-0.5611096875 -3.6369803125 -5.6888305432
-0.0224137500 -3.4880525000 -4.8561969760
-0.0818075000 -2.9432290625 -4.0235906080
0.5233234375 -3.4635156250 -5.7105393904
1.0420243750 -3.3227846875 -4.7937035760
1.0387187500 -2.7425803125 -4.0519813920
1.5646490625 -3.2622621875 -5.6619719808
-1.6532290625 -6.5822424688 -3.2514182720
-0.5310768750 -6.4373512813 -3.2186367600
0.5596584375 -6.2532333438 -3.2146345920
1.6238278125 -5.9999660313 -3.2438154480
1.7345796875 -6.5683884063 -2.4349371440
-1.7222440625 -5.4720200938 -3.2825030720
-1.6410546875 -6.0123392813 -2.4397164320
-0.5370431250 -5.2969281250 -3.2741360800
-0.5784978125 -5.8575809375 -2.4544946640
0.5976865625 -5.1173090625 -3.2111375520
0.5216571875 -5.6876167188 -2.4020261120
1.6799428125 -4.9080200000 -3.1790554480
1.6918618750 -5.4836045625 -2.3633643920
-1.7197850000 -4.2868984375 -3.1955433440
-1.6789350000 -4.9153703125 -2.4861882080
-0.6119437500 -4.1916265625 -3.2356686400
-0.5798146875 -4.7564987500 -2.4284352400
0.5244253125 -3.9842187500 -3.2696287840
0.4947553125 -4.5489162500 -2.4449231360
1.6579993750 -3.7755343750 -3.2275736400
1.5852621875 -4.3360393750 -2.4017929760
-1.7154312500 -3.1498843750 -3.2361737680
-1.7623012500 -3.7215021875 -2.4179182160
-0.6348815625 -3.0315537500 -3.1804154080
-0.5760656250 -3.6194846875 -2.4422938800
0.4932234375 -2.8936581250 -3.2155412320
0.5462075000 -3.4511128125 -2.4035674000
1.6058215625 -2.7110962500 -3.2746153040
1.6271737500 -3.2302003125 -2.3675219840
2.2140834375 -6.0005680313 -4.0144983040
2.1809331250 -4.8533965625 -4.0776263520
2.2169725000 -4.2793331250 -4.8635796160
2.1383900000 -3.1624215625 -4.8501095360
2.2011834375 -2.6030184375 -4.0333305120
-1.7878190625 -2.6272731250 -5.6342391584
-1.1857921875 -2.6194390625 -4.8660664000
-0.6375959375 -2.4540771875 -5.6557666776
-0.0418443750 -2.4083090625 -4.9227054960
0.5477259375 -2.3356659375 -5.6832365744
-1.7742203125 -2.6044831250 -2.3799688560
-0.6234328125 -2.4433675000 -2.4359992080
0.5052365625 -2.3366468750 -2.4142398480
2.2184506250 -3.7264471875 -4.0558022320
1.7172318750 -6.5657936250 -5.6919636320
0.5258228125 -6.2560498438 -6.4560298293
0.5863050000 -5.1358796875 -6.4281002660
-1.7373075000 -4.2825043750 -6.4668458632
-1.6904509375 -3.1923737500 -6.4680061033
6.6635084375 -6.0492332813 -4.0744401600
6.6688296875 -4.9003203125 -4.0305717360
6.6467384375 -4.3234484375 -4.8094273040
6.5970062500 -3.2309662500 -4.8988997200
6.6636696875 -2.6522265625 -4.1168579600
2.2717975000 -6.5566803125 -4.8394629920
2.7924871875 -6.3927105625 -5.7164442072
3.3364909375 -6.3341311250 -4.8686697520
3.3818425000 -5.8021646875 -3.9971944320
3.9086059375 -6.3170345938 -5.6705604520
4.4568962500 -6.2617339063 -4.8351888320
5.0847500000 -5.7613039375 -6.4342999998
4.5282762500 -5.6788447188 -4.0728470640
4.9990590625 -6.3551446875 -5.6686124712
5.5867346875 -6.3848281250 -4.8951824960
6.1296768750 -5.8990342813 -6.4339291841
5.6241581250 -5.8252543438 -4.0738961760
6.1721393750 -6.4729163125 -5.6432343224
2.2906368750 -5.4368958125 -4.8244775280
2.8046615625 -5.2721090625 -5.6951148536
3.3545912500 -5.2385825000 -4.8165509040
3.3078825000 -4.6649490625 -4.0257276880
3.8641950000 -5.1974906250 -5.7063144480
4.4240415625 -5.1428000000 -4.8982262160
4.4635209375 -4.6044937500 -4.0228264400
5.0295621875 -5.1994256250 -5.6358749960
5.6246284375 -5.2865140625 -4.9187810400
5.5319365625 -4.7501293750 -4.0723160320
6.2424578125 -5.3313818750 -5.6497284552
2.7322200000 -3.6232606250 -6.4356686377
2.7931725000 -4.1955637500 -5.6308755240
3.3762659375 -4.1348262500 -4.8630356320
3.2804565625 -3.5521762500 -4.0721476560
3.9192350000 -4.0189681250 -5.6847195784
4.4866737500 -4.0653946875 -4.8857275360
4.3616378125 -3.5318856250 -4.0424616720
5.0668646875 -4.0585953125 -5.6730472360
5.5883740625 -4.1460600000 -4.8072125120
5.5464356250 -3.5861462500 -3.9933347360
6.1127590625 -4.2531434375 -5.7207442712
2.7662975000 -2.5273250000 -6.4609519778
2.7152215625 -3.0684800000 -5.6232260728
3.3149237500 -3.0039531250 -4.9059067520
3.3160121875 -2.4713981250 -4.0408167680
3.9165609375 -2.8991809375 -5.6510482640
4.4588984375 -2.9431215625 -4.8160198720
4.4418193750 -2.3640459375 -4.0559317520
4.9737025000 -2.9777096875 -5.7195345544
5.5076818750 -3.0300487500 -4.8111758240
5.6001990625 -2.4434615625 -4.0376305760
6.0387184375 -3.1156053125 -5.6832456408
2.7811862500 -5.8308658438 -3.2638003840
2.7815490625 -6.4108767188 -2.4960705840
3.9765459375 -5.7631932500 -3.2603033440
3.8724725000 -6.2951381875 -2.4287201840
5.0679128125 -5.8019953750 -3.2273146000
5.0317121875 -6.3510422188 -2.3798522880
6.1427515625 -5.9069046250 -3.1732918080
6.1837762500 -6.5093104375 -2.4440294480
2.7248965625 -4.7102737500 -3.2318089440
2.8351646875 -5.2800506250 -2.4480057120
3.8723112500 -4.6214115625 -3.2503562080
3.8997909375 -5.1918871875 -2.4605302960
5.0196721875 -4.6451421875 -3.1891580080
5.0185971875 -5.2340271875 -2.4355588400
6.0942421875 -4.7799068750 -3.2609250400
6.2142659375 -5.3200271875 -2.4241610800
2.7564343750 -3.6165015625 -3.1949475520
2.7532631250 -4.1707850000 -2.3701253360
3.8222028125 -3.4635693750 -3.1902200720
3.9178375000 -4.0625459375 -2.4607893360
4.9312265625 -3.4986009375 -3.2776978800
5.0459693750 -4.0483425000 -2.4568260240
6.1512037500 -3.6788784375 -3.3117875440
6.1390428125 -4.2011806250 -2.4442625840
2.7503203125 -2.4652571875 -3.2328580560
2.6963284375 -3.0319837500 -2.4340305040
3.8774712500 -2.3558221875 -3.2511203760
3.8650415625 -2.8746440625 -2.4125949440
5.0071753125 -2.3982443750 -3.2701468640
5.0074575000 -2.9402996875 -2.4424363520
6.1531253125 -2.5489728125 -3.2052184880
6.0287746875 -3.1360437500 -2.4523964400
3.9046553125 -4.5967537500 -6.4471810229
4.9822621875 -4.6424815625 -6.4504561951
3.8077575000 -3.4630184375 -6.4690612639
6.1193434375 -2.5398756250 -6.4489140005
-6.1620760313 -2.2084531250 -5.6843815312
-5.6703817813 -1.7008650000 -3.9707464480
-4.5058759375 -1.9052628125 -4.0442879040
-3.4173443750 -2.0360903125 -4.0833381840
-6.2116106875 -1.0449671875 -5.7443855568
-5.6961696875 -1.1821371875 -4.8576087440
-5.5896909375 -0.6208662500 -4.0433812640
-5.1242293750 -1.1666571875 -5.6690644960
-4.5872668750 -1.3383750000 -4.8399551680
-4.4923981250 -0.7543006250 -4.1104078640
-4.0195996875 -1.3848015625 -5.6317199944
-3.4116334375 -1.4724140625 -4.8884863120
-2.8547834375 -0.9947243750 -6.4142152039
-3.4096446875 -0.9190846875 -4.0775486400
-2.8396662500 -1.5800081250 -5.6616365240
-6.2067301875 0.1046378125 -5.6645494288
-5.6691401563 -0.0554028125 -4.8399292640
-5.0253696875 0.4317065625 -6.4586847302
-5.6170886563 0.5410475000 -4.1193965520
-5.1044493750 -0.1089512500 -5.6251727584
-4.5111971875 -0.1540071875 -4.8495526000
-3.9606225000 0.2838268750 -6.4499976943
-4.5157525000 0.4057856250 -4.0521627200
-3.9659034375 -0.2809646875 -5.6392166120
-3.3610009375 -0.3613881250 -4.8888878240
-3.3912890625 0.1698768750 -4.0258442560
-2.7984534375 -0.3963928125 -5.6741416800
-6.1349403438 1.7328731250 -6.4509637840
-6.1672561875 1.1718575000 -5.6271919752
-5.5613996250 1.1282931250 -4.8726589680
-5.0676171875 1.5704809375 -6.4429979154
-5.6401742813 1.6806818750 -4.0494168960
-5.0116500000 0.9920637500 -5.6585215680
-4.4324668750 0.9540893750 -4.8717264240
-4.5154703125 1.4964671875 -4.0161432080
-3.8614940625 0.8520046875 -5.6654457072
-3.3403878125 0.7403928125 -4.8021741840
-3.3311696875 1.3139456250 -4.0138636560
-2.8215121875 0.7120800000 -5.7101132696
-6.2840025313 -1.6446828125 -3.2678932160
-6.1579265313 -2.1658428125 -2.3934518880
-5.0635321875 -1.7553809375 -3.2576611360
-3.9385312500 -1.9081250000 -3.2289724560
-2.8586265625 -2.1097412500 -3.2458877680
-6.1411310000 -0.4737390625 -3.2478694240
-6.1913885938 -1.0707134375 -2.4965368560
-5.0111662500 -0.6177756250 -3.2303971760
-5.1366725000 -1.1880362500 -2.4579139920
-3.9657153125 -0.8498009375 -3.2173804160
-3.9843934375 -1.3884162500 -2.3563314560
-2.8841309375 -0.9939853125 -3.2018380160
-2.7979831250 -1.5585350000 -2.4213893520
-6.1301552500 0.6569459375 -3.2185072400
-6.2470319375 0.0801143750 -2.4433948000
-5.0931484375 0.4343671875 -3.2418726480
-5.0686921875 -0.0873975000 -2.3538576240
-3.9592921875 0.2449656250 -3.2384144640
-3.9074771875 -0.2947784375 -2.3949931760
-2.8123881250 0.1538056250 -3.2300733760
-2.7665796875 -0.4176106250 -2.4439517360
-6.2122220938 1.7180650000 -3.2312131520
-6.1290426250 1.1798393750 -2.3520572960
-5.0848978125 1.5588306250 -3.2402795520
-4.9733934375 0.9846193750 -2.4355199840
-3.9117100000 1.3991259375 -3.2764156320
-3.9016318750 0.8286906250 -2.4839604640
-2.7244800000 1.2739018750 -3.2710664560
-2.8294671875 0.7307043750 -2.4409857280
-2.3038459375 -2.0616350000 -4.0686894720
-2.2670406250 -1.5013584375 -4.8794846720
-2.3355987500 -0.9509181250 -4.0325533920
-2.2519368750 0.1164493750 -4.0404152560
-2.2769171875 0.6855543750 -4.8619476640
-5.5006392813 2.2226565625 -4.8736174160
-4.9477681250 2.1428378125 -5.6847726816
-4.4098246875 2.0495681250 -4.8120306560
-3.8939993750 1.9416381250 -5.7055917264
-3.3458971875 1.8685918750 -4.8167710880
-2.8202625000 1.8195584375 -5.6816072128
-3.9004896875 1.9500500000 -2.4557510080
-2.8037343750 1.8205125000 -2.4509976240
-2.2635468750 1.7680525000 -4.8649266240
-6.7083673409 -2.0658006250 -4.8628802080
-6.6981641531 0.6618506250 -4.0556727120
-4.9794134375 2.1231787500 -2.4853592800
-2.8305153125 -2.1348828125 -6.4628392138
-3.9201756250 -0.8314721875 -6.4497183197
-2.2229118750 -0.4181481250 -4.8904550160
-2.1518409375 1.2184587500 -4.0234999440
-1.1513653125 -2.0524571875 -4.0770046560
0.4896087500 -1.7345931250 -6.4051515238
-0.0223465625 -1.8941365625 -4.0298075680
1.0817859375 -2.1651171875 -4.8630615360
1.0495359375 -1.6501384375 -3.9903946320
1.6560240625 -2.1874637500 -5.6845900584
-1.6895506250 -1.5538318750 -5.6696732400
-1.1733759375 -1.4416690625 -4.7915405920
-1.1729996875 -0.8679953125 -4.0373844880
-0.6345859375 -1.3541909375 -5.6564634952
-0.0626859375 -1.3271143750 -4.8299173680
-0.0063156250 -0.7543275000 -4.0537299120
0.4612153125 -1.1364631250 -5.6812147672
1.0604606250 -1.1218162500 -4.9326655840
1.6654706250 -0.4563912500 -6.4088943928
1.1077875000 -0.6192806250 -4.0288102640
1.6558493750 -1.0515918750 -5.6788963592
-1.6786931250 0.1435393750 -6.4640994952
-1.6594909375 -0.4337893750 -5.6943934272
-1.1181478125 -0.3010940625 -4.8418202560
-0.5840743750 0.2619506250 -6.4717815336
-1.1697478125 0.2637378125 -4.0609959840
-0.5566081250 -0.3062271875 -5.6746209040
-0.0255178125 -0.1564393750 -4.7979906880
-0.0307987500 0.4272318750 -4.0366203200
0.5209450000 -0.0454456250 -5.6572704048
1.0820412500 -0.0457546875 -4.8088185600
1.1351328125 0.5601825000 -4.0850089920
1.5914165625 0.1413893750 -5.6835953448
-1.7200134375 0.7052940625 -5.6708933184
-1.1147615625 0.7984831250 -4.9231070080
-0.5499700000 1.3986825000 -6.4321864925
-1.0884375000 1.3513421875 -4.0874569200
-0.5186337500 0.8175375000 -5.6582534616
0.0408903125 0.9837862500 -4.8618570000
0.5396500000 1.5544500000 -6.4685925181
-0.0366709375 1.5393596875 -4.0623559440
0.6264025000 1.0047353125 -5.6517930040
1.1512712500 1.1544693750 -4.7979129760
1.0805093750 1.7263693750 -4.0333693680
1.6949793750 1.2513806250 -5.6659624920
-1.7407743750 -2.0920978125 -3.2769078080
-0.6205571875 -1.8802018750 -3.2533222160
0.4982087500 -1.7372403125 -3.1590316560
1.6373190625 -1.6211268750 -3.1698983840
1.6300896875 -2.1902050000 -2.3946305200
-1.7422659375 -0.9778200000 -3.2718435760
-1.6997362500 -1.5284753125 -2.4564245120
-0.5821528125 -0.8038178125 -3.2742267440
-0.6238090625 -1.3579937500 -2.4101988240
0.5356053125 -0.5622787500 -3.2273146000
0.5112162500 -1.1497528125 -2.4401308960
1.6441721875 -0.4273528125 -3.2157614160
1.6136690625 -1.0095862500 -2.4632113600
-1.6944821875 0.1641928125 -3.1900128400
-1.6423043750 -0.4298118750 -2.4517229360
-0.6105193750 0.2924268750 -3.2652121520
-0.5401471875 -0.2613190625 -2.4231637760
0.5743321875 0.4807803125 -3.2836817040
0.4733896875 -0.0510625000 -2.3769769440
1.6530140625 0.6932003125 -3.2093631280
1.6655512500 0.1144203125 -2.4056267680
-1.5970603125 1.2884278125 -3.1766463760
-1.6917946875 0.7234346875 -2.3951356480
-0.5497953125 1.3816303125 -3.1549647280
-0.4666037500 0.7998671875 -2.3734928560
0.5341809375 1.5693521875 -3.2334668000
0.6258515625 1.0339350000 -2.4263629200
1.6816225000 1.7673671875 -3.2804825600
1.7150953125 1.2502921875 -2.3886207920
2.1815915625 -2.0285787500 -4.8055287520
2.1335793750 -1.4459018750 -4.0619673840
2.2012775000 -0.8772940625 -4.8556529920
2.2164081250 -0.3261953125 -4.0088512320
2.1881759375 0.1792562500 -4.9107637520
-1.6910825000 1.8763453125 -5.6662966536
-1.1185912500 1.9073725000 -4.9068652000
-0.5203671875 1.9804993750 -5.6585552432
0.0505115625 2.0983328125 -4.8929936080
0.6357684375 2.1265650000 -5.6594476360
-1.6998571875 1.8599381250 -2.3995004720
-0.5311575000 1.9500903125 -2.3548549280
0.6287943750 2.1137993750 -2.3801760880
1.5732087500 -1.6211537500 -6.4725581096
-1.6193800000 1.2946628125 -6.4314215474
6.7129718750 1.8202437500 -4.1171817600
2.2595290625 0.7073096875 -3.9838538720
2.2552962500 1.8399834375 -4.0443267600
6.5925315625 -1.5035890625 -4.0535097280
6.7174062500 -0.9411356250 -4.8393982320
6.6915256250 -0.4114965625 -3.9680135760
6.6445481250 0.1093275000 -4.8733842800
6.6980696875 1.2311303125 -4.8543577920
2.7152753125 -1.9463815625 -5.6711653104
3.2854150000 -1.8996325000 -4.8230916640
3.3067806250 -1.3198178125 -4.0431610800
3.8074215625 -1.7985018750 -5.6892450072
4.3650375000 -1.8005443750 -4.8583729120
4.4770121875 -1.2429150000 -4.0354157840
4.9226534375 -1.8616178125 -5.6530325104
5.5141050000 -1.9268837500 -4.9310854400
5.5195337500 -1.3689990625 -4.1206010880
6.1454525000 -1.9985459375 -5.6005730248
2.7770743750 -0.8960393750 -5.6722804776
3.2995915625 -0.7543006250 -4.8117845680
3.3303096875 -0.1461596875 -4.0852809840
3.8487687500 -0.6786340625 -5.6590785040
4.4275218750 -0.7120531250 -4.8902607360
4.4155490625 -0.1334746875 -4.0989582960
5.0241468750 -0.7067318750 -5.6212819776
5.6109893750 -0.7671603125 -4.8658462160
6.1109987500 -0.3293531250 -6.4754478355
5.5216703125 -0.2327912500 -4.0409074320
6.1546437500 -0.9072462500 -5.6956212768
2.8123612500 0.8354900000 -6.4187190029
2.7651418750 0.2537806250 -5.6694776648
3.3382781250 0.3952103125 -4.9182500080
3.3374046875 0.9192056250 -4.0561001280
3.9622753125 0.4045628125 -5.6360899992
4.5144356250 0.4643731250 -4.8319896880
4.4257884375 1.0348487500 -4.0596878320
5.0503500000 0.3708346875 -5.7123177000
5.5884815625 0.3509471875 -4.8271326880
5.6243731250 0.8972621875 -3.9885813520
6.1098700000 0.2536328125 -5.7266102320
2.2449762500 1.2529931250 -4.8191024480
2.7612718750 1.4465737500 -5.6917253152
3.3494850000 1.4784609375 -4.8927345680
3.4214831250 1.9962750000 -4.0092916000
3.9034190625 1.5267956250 -5.6972169632
4.4681434375 1.5911612500 -4.8757933520
4.5460540625 2.1245090625 -4.0095117840
5.0174953125 1.4942096875 -5.7052731072
5.5485990625 1.4211903125 -4.8735138000
5.6347200000 1.9853100000 -4.0904617840
6.1414750000 1.3804075000 -5.6499823144
2.7221956250 -1.3776931250 -3.2766487680
2.7330262500 -1.9142121875 -2.4100045440
3.8903309375 -1.2535171875 -3.2839666480
3.7860693750 -1.7716806250 -2.4302355680
5.0230046875 -1.2615125000 -3.1869561680
4.8792771875 -1.8444043750 -2.4409339200
6.0488637500 -1.4479846875 -3.1975897600
6.0640884375 -2.0058156250 -2.3725732640
2.8100231250 -0.3213309375 -3.2169918560
2.7270331250 -0.8411337500 -2.3592068000
3.8830209375 -0.1563856250 -3.2242838320
3.8394565625 -0.7249262500 -2.4223478000
4.9490446875 -0.1482425000 -3.2407976320
4.9739981250 -0.6895587500 -2.3971950160
6.0712775000 -0.3471309375 -3.2690070880
6.1843943750 -0.8822256250 -2.4162215040
2.8231246875 0.8597178125 -3.1627359280
2.7122384375 0.2560112500 -2.4502334560
3.8954237500 0.9309096875 -3.2087414320
3.9137121875 0.3951431250 -2.3821836480
5.0074306250 0.9360025000 -3.2957011600
5.0601996875 0.4016737500 -2.4085021120
6.2032337500 0.8250490625 -3.2236750880
6.1110121875 0.2303725000 -2.4994510560
2.8181662500 1.9850009375 -3.2607178080
2.7674665625 1.4484818750 -2.4096159840
3.9625978125 2.1105475000 -3.2160593120
3.9451156250 1.5407437500 -2.4540283920
5.1093675000 2.0908750000 -3.2144921200
5.0327468750 1.4804362500 -2.4708918960
6.1920134375 1.9372306250 -3.2274441200
6.1137265625 1.3875696875 -2.4111961280
4.9964118750 -1.2765356250 -6.4314123514
2.7512609375 -0.3205784375 -6.4535109243
3.8820534375 0.9381121875 -6.4740163105
3.9882768750 2.1149818750 -6.4556911345
5.1080506250 2.0831081250 -6.4523938143
-5.5008623438 6.6834093750 -4.8408100000
-6.6351843375 2.4091018750 -4.8604581840
-4.9575506250 6.6136553125 -5.7062522784
-4.4339584375 6.5540868750 -4.7906469040
-3.9227287500 6.4159628125 -5.7170736744
-3.3823262500 6.3854731250 -4.8461850800
-2.8238771875 6.2982368750 -5.6646530448
-4.9458734375 6.6470206250 -2.4258836960
-3.8984068750 6.4092440625 -2.4631466000
-2.8260003125 6.2811846875 -2.4457261600
-6.1743659688 2.8593790625 -6.4647236261
-6.7113217366 2.9667043750 -4.0459198560
-6.0922574688 2.2797928125 -5.6539300840
-5.5714280313 2.7607478125 -4.0159359760
-4.4033612500 2.6217234375 -4.0297298560
-3.2566587500 2.4478018750 -4.0281238080
-6.6233029000 3.5086790625 -4.8675170240
-6.6628905813 4.0556793750 -4.0309214400
-6.0552223750 3.4208515625 -5.6858140224
-5.5376582500 3.3335346875 -4.8048811520
-5.4858647500 3.9059050000 -4.0411017120
-5.0179656250 3.2294343750 -5.7115936832
-4.4711937500 3.1830481250 -4.8496821200
-4.3465206250 3.7389978125 -4.0481605520
-3.9192753125 3.0719468750 -5.6680684872
-3.3371359375 2.9619340625 -4.9164237760
-3.3159450000 3.5258521875 -4.0838692160
-2.7161084375 2.9703459375 -5.6148072728
-6.6805488000 4.6347415625 -4.8162918640
-6.0187839063 5.0940218750 -6.4587585566
-6.6082873000 5.2034568750 -4.0466063120
-6.1617226250 4.5099340625 -5.7113514808
-5.6092814688 4.4710325000 -4.8549017760
-5.4842710625 5.0251278125 -4.0585351040
-5.0604415625 4.3637475000 -5.6659288168
-4.4667996875 4.2624690625 -4.9439597280
-4.4484575000 4.8023071875 -4.0918217440
-3.8282765625 4.2449868750 -5.6054921944
-3.2531515625 4.0971878125 -4.8803265520
-3.3490684375 4.6592918750 -4.0776911120
-2.6564056250 4.0702993750 -5.6442989768
-6.1418969375 6.2394478125 -6.4148458368
-6.6474323500 6.3208925000 -4.0620450960
-6.1661905938 5.6462628125 -5.6492285080
-5.5602319063 5.5597118750 -4.9417319840
-5.6160526250 6.0931268750 -4.0881951840
-4.9352443750 5.5292759375 -5.6219023784
-4.3656018750 5.3887062500 -4.8540080880
-4.5081200000 5.9542637500 -4.0599339200
-3.8146912500 5.3359909375 -5.6826019264
-3.2815046875 5.2742590625 -4.7831995040
-3.2894193750 5.8482015625 -4.0029839760
-2.7790228125 5.1703200000 -5.6959735712
-6.1469064375 2.8373415625 -3.2541511440
-6.0548219375 2.2676318750 -2.4418535120
-4.9735412500 2.7125609375 -3.2658727040
-3.8325900000 2.5174484375 -3.2432196560
-2.7134746875 2.4156459375 -3.2064877840
-6.0681788125 3.9794753125 -3.2823476480
-6.1020184688 3.4096178125 -2.4835071440
-4.9238628125 3.8072065625 -3.2452142640
-5.0309059375 3.2554090625 -2.4300671920
-3.8262206250 3.6577278125 -3.1710899680
-3.9019678125 3.0745671875 -2.4255339920
-2.7657600000 3.5403512500 -3.2161240720
-2.7210400000 2.9795909375 -2.4077249920
-6.0529635313 5.0700493750 -3.2380647600
-6.1457105000 4.5171634375 -2.4212468800
-4.9684081250 4.9496359375 -3.1784855600
-5.0211100000 4.3618125000 -2.4284611440
-3.8959746875 4.8070775000 -3.2398391840
-3.8524775000 4.2493675000 -2.4190061840
-2.7924737500 4.6089953125 -3.2664555440
-2.6781340625 4.1018237500 -2.3821059360
-6.1188140000 6.2252712500 -3.1704294160
-6.1475165000 5.6275981250 -2.4299894800
-5.0635590625 6.0927371875 -3.2381683760
-4.9485743750 5.5340731250 -2.4229824480
-3.9263568750 5.8702121875 -3.3219160080
-3.8021271875 5.3524653125 -2.4088777200
-2.7137568750 5.7300859375 -3.2694604080
-2.7531825000 5.1785706250 -2.4525518640
-2.2565056250 6.2768175000 -4.8707938800
-2.7232034375 2.4166403125 -6.4392476638
-3.8438506250 3.6672281250 -6.3993744138
-2.8227350000 3.5083431250 -6.4620988774
-4.9522965625 4.9605606250 -6.4122467590
1.2059484375 6.7050437500 -4.8034952880
-1.6825362500 6.3266437500 -5.6415570384
-1.0927643750 6.3936431250 -4.9162424480
-0.4804175000 6.4437784375 -5.6211705904
0.0792543750 6.5772531250 -4.8540728480
0.6640140625 6.6353165625 -5.6387231408
-1.6701468750 6.3135825000 -2.4121934320
-0.5177065625 6.4491400000 -2.3991766720
0.6365881250 6.6516565625 -2.3736482800
-2.1685571875 2.3176328125 -4.0490801440
-1.0243943750 2.4255090625 -4.0324627280
0.6215784375 2.6965837500 -6.4424102832
0.0723878125 2.6434115625 -4.0305069760
1.1975768750 2.2827893750 -4.8551996720
1.1333187500 2.8540443750 -4.0700623840
1.7708475000 2.3155768750 -5.6476043272
-2.1566784375 2.8933087500 -4.8186620800
-2.2346831250 3.4829193750 -4.0749970960
-1.6184796875 2.9902737500 -5.6654405264
-1.0668434375 3.0048400000 -4.8176518240
-1.0403850000 3.5450409375 -3.9939175760
-0.5505075000 3.1385834375 -5.7084165576
0.0043537500 3.1739240625 -4.8758451600
0.6715256250 3.8531359375 -6.4350291974
0.1292553125 3.7306531250 -3.9971037680
0.5784037500 3.2697200000 -5.6746986160
1.1395000000 3.4088921875 -4.8970475840
1.2337371875 3.9659168750 -4.0413089440
1.7475334375 3.4083681250 -5.6332561016
-2.1206659375 4.0699365625 -4.8123544560
-1.6503937500 4.6216668750 -6.4631449846
-2.2027287500 4.6491062500 -4.0289397840
-1.5812981250 4.0394065625 -5.6892735016
-1.0437309375 4.1181368750 -4.7979647840
-1.0861531250 4.6997925000 -4.0336154560
-0.5250300000 4.2530762500 -5.6796929072
0.0316990625 4.2511546875 -4.8382455040
0.0741615625 4.8160268750 -4.0279295280
0.5544850000 4.4472615625 -5.7050995504
1.1168175000 4.4848462500 -4.8918149760
1.7778618750 5.1420609375 -6.4415623158
1.2309153125 5.0251681250 -3.9894361840
1.6938506250 4.5641275000 -5.6726910560
-2.2127128125 5.1797262500 -4.8869838800
-2.1183412500 5.7345875000 -4.0373715360
-1.6139243750 5.1633056250 -5.6321940376
-1.0436234375 5.2517512500 -4.8627765920
-0.5647915625 5.8846440625 -6.4532143235
-1.0796493750 5.8264731250 -4.0850089920
-0.4562434375 5.3355340625 -5.6425090104
0.0804503125 5.3984484375 -4.7974596560
-0.0077803125 5.9919290625 -4.0811881520
0.6014625000 5.5699512500 -5.6863308072
1.1469712500 5.5615259375 -4.8298267040
1.1494437500 6.1239256250 -4.0174125040
1.6616812500 5.7266996875 -5.7090758144
-1.6019650000 2.3959196875 -3.2508872400
-0.4691165625 2.4974131250 -3.1951936400
0.6197643750 2.6876478125 -3.1643678800
1.6850087500 2.8438721875 -3.2150749600
1.7655665625 2.2965493750 -2.3873903520
-1.6640596875 3.4892618750 -3.2843681600
-1.5957837500 2.9461718750 -2.4192781760
-0.4656900000 3.6666100000 -3.2540216240
-0.5385346875 3.0854246875 -2.4555826320
0.6976346875 3.8254009375 -3.1958282880
0.5751787500 3.2625175000 -2.3872867360
1.7654993750 3.9814103125 -3.1811795760
1.7799178125 3.4122112500 -2.3872349280
-1.6463625000 4.5816500000 -3.2305655520
-1.5706690625 4.0192771875 -2.4307277440
-0.5255271875 4.8261721875 -3.2642537040
-0.5009365625 4.2242931250 -2.4715135920
0.6219815625 5.0050253125 -3.2513017040
0.5628162500 4.4191503125 -2.4740392320
1.8014178125 5.1239740625 -3.2046745040
1.6775240625 4.5685618750 -2.4056008640
-1.5979068750 5.7357431250 -3.1764909520
-1.6439437500 5.1408650000 -2.4365820480
-0.5364384375 5.8827628125 -3.2042082320
-0.4612287500 5.3255903125 -2.3666671520
0.5383600000 6.1148553125 -3.2699784880
0.6470828125 5.5670218750 -2.4382917120
1.7021012500 6.3128703125 -3.2615726400
1.6941193750 5.7355684375 -2.4868228560
2.2158706250 3.0230209375 -4.0560094640
2.2173890625 5.8117590625 -4.8800934160
-0.5000362500 2.5538506250 -6.4420794891
1.7021012500 2.8557778125 -6.4748953433
1.7613068750 3.9818537500 -6.4284394789
-1.6174315625 5.7395593750 -6.4124880547
6.7005690625 5.7587212500 -4.8743945360
2.3011450000 4.1538134375 -4.0825351600
2.3203740625 2.4193815625 -4.7898050240
2.8535471875 2.5380884375 -5.6776374248
3.3867471875 2.5644259375 -4.8026922640
3.4026034375 3.1484465625 -4.0103407120
3.9152843750 2.6877150000 -5.6949218688
4.4710593750 2.6581793750 -4.8885510720
5.0907431250 3.1913525000 -6.4547054873
4.5531759375 3.1936100000 -4.0471243920
5.0615971875 2.6479265625 -5.6429169984
5.6378375000 2.5607440625 -4.8749126160
6.1886675000 3.0202259375 -6.4478176137
5.6282700000 3.1280215625 -4.0951892640
6.2126400000 2.4507312500 -5.6372077568
2.3122846875 3.5731118750 -4.8636184720
2.8985493750 3.6208821875 -5.6312550176
3.4484521875 3.6949631250 -4.8164343360
3.3741025000 4.3015453125 -4.0792453520
3.9946328125 3.7937018750 -5.6549662440
4.5554468750 3.7817962500 -4.8337252560
4.4958381250 4.3507803125 -4.0570715280