ITEM: TIMESTEP
71000
# source: voids-relax.71000.cfg
ITEM: NUMBER OF ATOMS
2298
ITEM: BOX BOUNDS pp pp pp
-6.7187500000 6.7187500000
-6.7187500000 6.7187500000
-6.4760000000 6.4760000000
ITEM: ATOMS x y z
-5.5897917188 -6.5675055625 -4.0530434560
-3.9526003125 -6.2799470938 -6.2432188848
-4.5220950000 -6.4775294063 -4.0562555520
-3.3549675000 -6.2671801250 -4.0482123600
-6.1906549063 -5.3819297188 -6.4665133076
-6.1395789688 -5.9617927813 -5.6958582984
-5.5928944375 -6.0056205313 -4.8746276720
-5.5999639063 -5.4577951563 -4.0802426560
-4.9942081250 -5.9518530625 -5.6447432304
-4.3925171875 -5.9568880938 -4.9953144080
-3.9100034375 -5.3795123125 -6.3937985778
-4.4846850000 -5.4530732188 -4.0597266880
-3.4701671875 -5.7880459063 -4.9880483360
-2.8756250000 -5.7551495625 -5.6513137800
-2.8121059375 -5.1610615625 -6.4509121055
-2.3175387500 -5.5876860625 -4.8298396560
-6.1696695625 -4.8242909375 -5.6389251920
-5.6115524063 -4.8676537500 -4.8341267680
-5.6791981250 -4.2828671875 -4.0787790800
-5.0796034375 -4.8720075000 -5.6985587904
-4.5279000000 -4.8455221875 -4.8222497840
-4.5240568750 -4.2984950000 -4.0332268960
-3.9930606250 -4.8559496875 -5.6893810032
-3.4235793750 -4.6772040625 -4.8842251040
-3.9673009375 -4.1657190625 -3.2382719920
-2.8424075000 -4.5902365625 -5.6667072320
-6.2126695625 -3.7499896875 -5.6611352816
-5.6622064063 -3.7112359375 -4.8574403680
-5.0651984375 -3.1914734375 -6.4590480338
-5.6016100000 -3.1561596875 -4.0390552960
-5.0723471875 -3.7728200000 -5.6468272072
-4.5053518750 -3.7519246875 -4.8665197200
-4.5281821875 -3.1769878125 -4.0753856560
-3.9383162500 -3.6645271875 -5.6777423360
-3.3928075000 -3.5929590625 -4.8428564160
-3.4174115625 -3.0385143750 -4.0523570000
-2.8509537500 -3.4138371875 -5.6994369360
-6.1586346875 -6.5500798125 -3.2388936880
-5.0472862500 -6.5498056875 -3.2033274960
-3.9094928125 -6.4821787813 -3.2846660560
-2.7756634375 -6.3030972188 -3.2679579760
-6.1570866875 -5.4004116563 -3.2707815120
-6.1906790938 -5.9612310938 -2.4650116880
-5.0536018750 -5.3965295625 -3.2464317520
-5.0599846875 -5.9682710000 -2.4536398320
-3.9553550000 -5.2941331250 -3.2036124400
-3.9255506250 -5.9124072813 -2.4926383040
-2.8110443750 -4.6028678125 -2.4782486320
-2.8341971875 -5.1786512500 -3.2051537280
-6.2157440625 -4.2711900000 -3.2445537120
-6.2043074063 -4.8436543750 -2.4527590960
-5.1088837500 -4.3278559375 -3.2793945920
-5.0991146875 -4.8531143750 -2.3994227600
-3.9713859375 -4.7229856250 -2.4298729120
-3.3920146875 -4.1680571875 -4.0300795600
-6.2051485938 -3.1899550000 -3.2603422000
-6.2312092813 -3.7258559375 -2.4165453040
-5.0816593750 -3.2123553125 -3.1980430800
-5.0992356250 -3.7837984375 -2.4240445120
-3.9859387500 -3.0684665625 -3.2468980240
-3.9811146875 -3.6180200000 -2.3998501760
-2.8622950000 -2.8641090625 -3.2351505600
-2.8586803125 -3.9858850000 -3.1826690560
-2.2414018750 -6.1943555938 -4.1159642720
-2.3174043750 -5.0305968750 -4.0511913200
-3.3971612500 -5.2350887500 -4.0401950720
-2.3079981250 -3.9462040625 -4.0194977760
-2.2848184375 -3.4103837500 -4.8979153680
-2.2845362500 -2.8780303125 -4.0171923200
-6.2185874375 -2.6226775000 -5.7138835968
-5.6819622188 -2.6121156250 -4.8690712640
-5.0916568750 -2.6443521875 -5.6376714384
-4.5147850000 -2.6057731250 -4.8702239920
-3.9325918750 -2.5402115625 -5.6211511624
-3.3556931250 -2.4624218750 -4.8451359680
-2.8007781250 -2.2943993750 -5.6743061704
-6.2375732813 -2.6289393750 -2.4474876320
-5.1050809375 -2.6294634375 -2.4267514800
-3.9563896875 -2.5292331250 -2.4040207200
-2.8562346875 -2.3192050000 -2.3895921920
-2.2555784375 -2.3207100000 -4.8345541840
-2.8233800000 -5.7709023438 -2.4281114400
-2.8776137500 -3.4165112500 -2.4072587200
-2.2813381250 -4.4777378125 -4.8891986720
-6.7068348881 -6.4118737813 -4.0579263600
-6.7072298431 -5.8759056563 -4.8753270800
-6.1266238750 -6.5389038438 -6.4609211521
-3.9619528125 -4.2205843750 -6.4492734185
-2.8127912500 -4.0284684375 -6.4304945727
-6.1804195625 -3.2114684375 -6.4667185579
-4.0048990625 -3.0779534375 -6.4720521009
-1.7122331250 -5.0174012500 -3.3088215360
-1.1552353125 -6.0687808125 -4.0714352960
-0.5507493750 -6.4786689063 -5.7101158600
-0.0028890625 -6.4177741875 -4.8328574720
0.5005603125 -5.7629460000 -6.4755682334
-0.0503100000 -5.8397977500 -4.0068177680
0.5345571875 -6.3447790000 -5.6837650160
1.0991203125 -6.2474753750 -4.8684107120
1.0989053125 -5.7197323438 -4.0653608080
1.6773090625 -6.3420256563 -5.6313003496
-1.7559050000 -5.5559655000 -5.6421450592
-1.1725965625 -5.4918162188 -4.8587096640
-0.5534637500 -4.8130975000 -6.4702150669
-1.1412334375 -4.9154375000 -4.0845815760
-0.5866006250 -5.3413121875 -5.6152139656
-0.0140959375 -5.3536478125 -4.8627118320
0.4886009375 -4.6119112500 -6.4436974530
-0.0514925000 -4.7517687500 -4.0420990160
0.5520662500 -5.2090737500 -5.6937108568
1.0825115625 -5.0868731250 -4.8379346560
1.6638312500 -4.6505306250 -6.4614699283
1.0516456250 -4.5758315625 -4.1055379120
1.6326562500 -5.2641675000 -5.7225769792
-1.7076240625 -3.8738565625 -6.4449737430
-1.6838128125 -4.4632253125 -5.6807731040
-1.1726771875 -4.3226287500 -4.8081839120
-1.2064053125 -3.7407446875 -4.0442231440
-0.5978746875 -4.2513025000 -5.6103867552
0.0017468750 -4.2037875000 -4.8906492960
-0.0585203125 -3.6473809375 -4.0490024320
0.6711896875 -4.0886684375 -5.4430495056
1.5763262500 -4.1020925000 -5.6080281960
1.0793537500 -3.6491950000 -4.1612056080
1.6214225000 -3.5284456250 -6.4491226572
-1.6637103125 -2.7467056250 -6.4711865446
-1.7024237500 -3.3045096875 -5.6638318880
-1.1415425000 -3.2039165625 -4.8669471360
-1.2009228125 -2.6621971875 -4.0095376880
-0.5835368750 -3.1556490625 -5.6915284448
0.4957631250 -2.9953934375 -5.6971819928
-0.0638415625 -3.0568834375 -4.8285574080
1.0499928125 -3.0744462500 -4.8306815360
1.0682946875 -2.4481243750 -4.1089054320
1.6283965625 -2.4264631250 -3.2867383760
1.5746331250 -2.9200090625 -5.7072184976
-1.7206718750 -6.0725177813 -3.2295682480
-1.6538203125 -6.6310180406 -2.4348594320
-0.6127768750 -5.9423702188 -3.2226648320
-0.5349603125 -6.4991960313 -2.4330332000
0.5518512500 -5.8223437813 -3.2628807920
0.5543640625 -6.3633899375 -2.4156904720
1.6676743750 -5.7431673438 -3.2662094560
1.6618021875 -6.2982261250 -2.4516322720
-1.7077046875 -5.5239748438 -2.3786607040
-0.6009115625 -4.8048065625 -3.2341403040
-0.6006293750 -5.3720034375 -2.4395739600
0.5302975000 -4.7033534375 -3.2115261120
0.4988671875 -5.2758850000 -2.4377477280
1.6241637500 -4.6676903125 -3.2590470000
1.6515225000 -5.2030403125 -2.4134109200
-1.7269068750 -3.9183212500 -3.2165773920
-1.7034450000 -4.4928953125 -2.4079710800
-0.6008712500 -3.7251975000 -3.2744598800
-0.6256903125 -4.2679112500 -2.4054583920
0.5364653125 -3.5336996875 -3.2742656000
0.4809146875 -4.1052637500 -2.4846210160
1.6018575000 -3.5091896875 -3.2301899440
1.6205356250 -4.0963950000 -2.4608411440
-1.7117628125 -3.3390440625 -2.4646749360
-0.0881231250 -2.4938253125 -4.0650111040
-0.5855256250 -3.1908150000 -2.4329166320
0.5161343750 -2.4792053125 -3.3145204160
0.4979131250 -3.0077425000 -2.4061578000
2.1544075000 -5.2127018750 -4.8390096720
2.0678565625 -4.1297200000 -4.8825802000
2.1524993750 -3.0078365625 -4.9286893200
2.2084531250 -2.4987031250 -4.0752043280
-1.7475065625 -2.7221150000 -3.1700279040
-0.6154778125 -2.6202453125 -3.2116167760
1.6148918750 -2.9550406250 -2.4206122320
2.2365912500 -5.7788869063 -4.0625631760
2.2351265625 -4.6569403125 -4.0069472880
2.1812690625 -3.5635443750 -4.0525383280
-1.7133350000 -6.6272236938 -5.6250302864
-1.0807109375 -6.6171032406 -4.8953897280
-0.6420571875 -5.8907823125 -6.4461589806
-0.5716312500 -3.7546525000 -6.4612926154
0.4950240625 -3.6348840625 -6.4280388735
6.6902087500 -5.3084978125 -4.0231502400
6.6668543750 -4.7975637500 -4.8866341760
6.6451125000 -4.2263490625 -4.0738314160
6.6499231250 -3.6514121875 -4.8464700240
6.6736403125 -3.0984725000 -4.0534967760
2.2618940625 -6.3508084063 -4.8487625280
2.8250059375 -5.8758519063 -6.4755321569
2.7841559375 -6.4660363125 -5.7186343904
3.3331718750 -6.4926506250 -4.8413669360
3.3885612500 -5.9365652188 -4.0066105360
3.8616284375 -6.6128380438 -5.7040180584
4.4222946875 -6.7138811772 -4.8885381200
4.4876143750 -6.1754853125 -4.0589754720
5.5777584375 -6.3105321875 -4.0940753920
2.7019587500 -5.3191000000 -5.6789054256
3.2773793750 -5.4233306563 -4.8943406160
3.3323387500 -4.8601556250 -4.0613068320
3.8791643750 -5.4598846875 -5.6228284464
4.4668131250 -5.6095838125 -4.8774253040
4.4032671875 -5.0468025000 -4.1066258800
5.0585737500 -5.6493641875 -5.6308897712
5.6335912500 -5.7228511875 -4.8325984320
5.5403618750 -5.1483093750 -4.0580040720
6.1595887500 -5.8556687813 -5.6975433536
2.6675050000 -3.6184634375 -6.4746031527
2.7308225000 -4.1650606250 -5.6263876560
3.2727434375 -4.3110187500 -4.8758063040
3.2222453125 -3.7133187500 -4.1060171360
3.9017662500 -4.3661528125 -5.6326447672
4.4474093750 -4.4300615625 -4.8254100720
4.3629950000 -3.8713034375 -4.0445987520
4.9770215625 -4.5611309375 -5.7010896112
5.5408456250 -4.5940125000 -4.8697965760
5.5341671875 -4.0467165625 -4.0182284800
6.1003562500 -4.6855353125 -5.6801280944
2.7443675000 -3.0578778125 -5.6506726560
3.3196671875 -3.1386103125 -4.8508866560
3.8819593750 -2.6860218750 -6.4301166334
3.2973878125 -2.5739531250 -4.0423451040
3.8455706250 -3.2811956250 -5.7008784936
4.3973815625 -3.3124512500 -4.8524927040
4.4506612500 -2.7479150000 -4.0265177600
4.9643365625 -3.3942990625 -5.6835189280
5.5050750000 -3.5172521875 -4.8707550240
5.5338581250 -2.9546106250 -4.0803980800
6.1033796875 -3.5615018750 -5.6535285720
2.7855668750 -5.9085923750 -3.2522083440
2.8010200000 -6.4507095000 -2.4245366880
3.9517671875 -6.0343257188 -3.2084823920
3.9087671875 -6.6251162906 -2.4680295040
5.0538034375 -6.1433938750 -3.2335833680
5.0369931250 -6.7147459341 -2.4496117600
6.1434368750 -6.3772735625 -3.2767264800
2.7762278125 -4.7499950000 -3.2256696960
2.7671709375 -5.3276328125 -2.4633926880
3.8860175000 -4.8717521875 -3.2167587200
3.8668153125 -5.4513424688 -2.4497412800
4.9533715625 -5.0771846875 -3.2704965680
5.0190675000 -5.6042141875 -2.3776504480
6.0964325000 -5.2766240625 -3.2477010480
6.1567400000 -5.8429125625 -2.4311810640
2.7133134375 -3.5950687500 -3.2052832480
2.7199381250 -4.1838328125 -2.4341988800
3.7761928125 -3.8006490625 -3.2723487040
3.8897396875 -4.3260150000 -2.3817821360
4.9379184375 -3.9925096875 -3.2710276000
5.0168368750 -4.5359087500 -2.4139549040
6.1049653125 -4.1153015625 -3.2279103920
6.1104343750 -4.7088493750 -2.4905659840
2.7258506250 -2.4630400000 -3.2089745680
2.7731237500 -3.0427875000 -2.4281114400
3.8496153125 -2.7270868750 -3.2681004480
3.9238575000 -3.2663068750 -2.4126985600
5.0037756250 -2.8381075000 -3.2252163760
4.9797225000 -3.4330393750 -2.4799194400
6.1024525000 -2.9938884375 -3.2557183360
6.0822828125 -3.5430521875 -2.4481093280
6.6806681250 -2.5265725000 -4.8461073680
5.0172668750 -2.2839718750 -5.6148513096
5.5879843750 -2.3676337500 -4.8345930400
6.1167903125 -2.4974534375 -5.6843711696
4.9508318750 -2.2783281250 -2.4212339280
6.0949140625 -2.4497906250 -2.3983477440
3.9548443750 -6.0136709375 -6.4411946085
5.0090565625 -6.2061980625 -6.4737313536
6.1237509375 -6.4235697813 -6.4746748550
2.7804203125 -4.7234290625 -6.4319755044
3.8336515625 -4.9236075000 -6.4719981169
6.1330900000 -5.2628371875 -6.4453164530
4.9845196875 -3.9681609375 -6.4480866267
6.1092518750 -4.1173709375 -6.4696244946
4.9798971875 -2.8147934375 -6.4654566964
-6.2148491250 -2.0280412500 -6.4474251681
-5.6250651563 -2.0679775000 -4.0252743680
-4.5046665625 -2.0450800000 -4.0790769760
-3.4004803125 -1.8860740625 -4.0919124080
-6.1643617500 -1.4642440625 -5.6499486392
-5.6076394063 -1.5253175000 -4.8604581840
-5.6558047813 -0.9585909375 -4.0638713280
-5.0403256250 -1.5463471875 -5.7043936664
-4.5336781250 -1.4403387500 -4.8247106640
-3.9177300000 -0.8917528125 -6.4707211922
-4.5207378125 -0.8750096875 -4.0097837760
-3.9625171875 -1.4607906250 -5.6666657856
-3.4243453125 -1.2909943750 -4.8482703520
-3.3605978125 -0.7292934375 -4.0644153120
-2.8259600000 -1.2174106250 -5.5968661624
-6.1611273438 -0.3824043750 -5.6221057248
-5.5790000625 -0.3853203125 -4.8593831680
-5.0188390625 0.1844565625 -6.4467846917
-5.5585307188 0.1642734375 -4.0592474640
-5.0272912500 -0.3991878125 -5.6622452680
-4.4500162500 -0.3557846875 -4.8933044560
-3.9424818750 0.3049103125 -6.4386613268
-4.4773078125 0.2052443750 -4.0413218960
-3.8885706250 -0.3082293750 -5.7194814512
-3.3650456250 -0.1365653125 -4.8361731840
-3.3995262500 0.4138481250 -4.0165835760
-2.8055081250 -0.1603496875 -5.6697600184
-6.1570410000 1.2941521875 -6.4582895647
-6.7025160219 1.4269146875 -4.0234092800
-6.1515732813 0.6940737500 -5.7116377200
-5.6098431563 0.7379606250 -4.8601473360
-5.5419878125 1.2840203125 -4.0228134880
-5.0477700000 0.7571359375 -5.6620263792
-4.4740156250 0.7376784375 -4.8982650720
-4.4095425000 1.2915050000 -4.0694277360
-3.8846871875 0.8656437500 -5.6380923784
-3.2938940625 0.9441456250 -4.8997804560
-2.7985340625 1.5817818750 -6.4215769912
-2.7135418750 0.9738425000 -5.6990794608
-6.1821247813 -2.0495546875 -3.2144144080
-5.0465875000 -2.0777196875 -3.2353059840
-3.9548175000 -1.9832137500 -3.2469886880
-2.8533590625 -1.7754834375 -3.2372358320
-6.1909532188 -0.9008231250 -3.2070188160
-6.1753872188 -1.4868862500 -2.4407396400
-5.0927318750 -0.9702143750 -3.2516643600
-5.0289575000 -1.5148228125 -2.4256505600
-3.9266525000 -0.8965096875 -3.2760659280
-3.9222450000 -1.4199406250 -2.4146284080
-2.8058843750 -0.6617565625 -3.2603681040
-2.8105606250 -1.2110143750 -2.4313753440
-6.1522505313 0.1627012500 -3.2817389040
-6.1364251875 -0.3385981250 -2.3879084320
-5.0363481250 0.1802237500 -3.1968903520
-5.0174281250 -0.4163206250 -2.4462830960
-3.9307912500 0.2576640625 -3.1898962720
-3.9011078125 -0.3382890625 -2.4518136000
-6.1305664375 1.2616065625 -3.2651473920
-6.1693497500 0.7212309375 -2.4304039440
-4.9643365625 1.3040421875 -3.2489055840
-5.0665690625 0.7519759375 -2.4260391200
-2.8014231250 1.5349790625 -3.1873188240
-3.8834643750 0.8485915625 -2.4429932880
-2.7921512500 0.4088762500 -3.2828657280
-2.7320453125 0.9436887500 -2.4345744880
-2.2947353125 -1.7470631250 -4.0339781120
-2.2429203125 -0.6044859375 -4.0984143120
-6.0864766563 1.8588765625 -5.7123151096
-5.5566118438 1.8320015625 -4.8621808000
-4.9901231250 1.8577612500 -5.7023187560
-4.4721209375 1.8766140625 -4.8181699040
-3.9219090625 1.9909671875 -5.6565554544
-3.3439487500 2.0448918750 -4.8827226720
-3.3437068750 1.4844943750 -4.0600893440
-2.7548218750 2.1449206250 -5.6335656544
-6.1265042813 1.8199212500 -2.4850095760
-5.0169040625 1.8572237500 -2.4309479280
-3.8818921875 1.4387531250 -3.1886917360
-3.9234275000 2.0144021875 -2.3824944960
-2.7968140625 -0.1209778125 -2.3990212480
-2.7401212500 2.1147534375 -2.4422420720
-2.2581584375 -0.0085731250 -4.8273269680
-2.2663553125 1.7258721875 -4.0022716160
-6.6637120156 0.8565868750 -4.8256173040
-6.6458800500 1.9477521875 -4.8953767760
-5.0904206250 -0.9464300000 -6.4552467514
-3.8612118750 1.4217950000 -6.4635372618
-2.2322912500 0.5766971875 -4.0701400960
1.6363650000 -1.8825131250 -2.4183197280
-1.6660215625 0.6098475000 -3.2702116240
-1.7241118750 -2.1599437500 -5.7267747224
-1.1152184375 -1.5992103125 -4.0049267760
-0.6271415625 -2.0605734375 -5.6710966648
-0.5772078125 -1.4402446875 -3.1879275680
-1.1861415625 -2.1182875000 -4.8725424000
-0.0418309375 -1.9447153125 -4.9178614480
-0.0119056250 -1.4143103125 -4.0395345200
0.5790218750 -1.9346775000 -5.6462249392
1.1055165625 -1.8568878125 -4.8286610240
1.0426156250 -1.2605584375 -4.0686635680
1.6701737500 -1.8665090625 -5.6811370552
-2.2349787500 -1.1995521875 -4.8455245280
-1.6917275000 -1.0149209375 -5.6646919008
-1.1374440625 -1.0493612500 -4.8336475440
-0.5576965625 -0.3193421875 -3.2660281280
-0.5989496875 -0.8911212500 -5.6904080968
-0.0548250000 -0.8495859375 -4.8542153200
0.5262796875 -0.7902593750 -5.6216174344
0.0353137500 -0.2988768750 -4.0216737120
0.5357800000 -1.3312128125 -6.4299486459
1.1228240625 -0.7121875000 -4.8894188560
1.6849012500 -0.1794443750 -6.4306738284
1.1374037500 -0.1749831250 -4.0328253840
1.6908943750 -0.7668781250 -5.6571823312
-1.6857209375 0.0661931250 -5.6045764880
-1.1275137500 -0.4758487500 -4.0305199280
-1.0839493750 0.0736106250 -4.8557307040
-0.5255406250 0.2335303125 -5.6542733120
0.0429328125 0.2628509375 -4.8321710160
0.5471346875 0.9459596875 -6.4437863037
-0.0068396875 0.8296581250 -4.0175420240
0.5683256250 0.3434625000 -5.7107155376
1.1072500000 0.3928856250 -4.8394241360
1.6609959375 0.4106365625 -5.6591885960
1.1504112500 0.9540490625 -4.0175808800
2.2262578125 0.3307775000 -4.8694209680
-2.2065987500 1.1713200000 -4.8243609600
-1.6423850000 1.1195453125 -5.6787836768
-1.0933556250 0.6486953125 -4.0950208880
-1.1206875000 1.2599806250 -4.8047645840
-0.5635553125 1.3354859375 -5.6124072672
0.0417100000 1.3601571875 -4.8844841440
0.0423146875 1.9155828125 -4.0763700080
0.5971625000 1.5241484375 -5.6793108232
1.1415425000 1.4968971875 -4.8567539120
1.7109028125 1.4953250000 -5.6704335224
-1.7266784375 -1.5801021875 -3.2546951280
-0.6288346875 -0.8538590625 -2.4357401680
0.5232293750 -1.3606946875 -3.1769831280
0.5290075000 -1.9754603125 -2.4326187360
1.6068562500 -1.3421778125 -3.2546174160
-1.7092903125 -1.0317446875 -2.4152630560
-0.5910350000 0.2335571875 -2.4407784960
-0.5742918750 0.8097571875 -3.2231829120
0.5745203125 -0.2124871875 -3.2002319680
1.6843503125 -0.1905840625 -3.2220690400
-1.6467790625 1.1531525000 -2.3866132320
-1.7135500000 -0.4739271875 -3.2485817840
-0.5229203125 1.9302431250 -3.2591506160
-1.6852775000 0.0702378125 -2.4171540480
-0.5233637500 1.3836056250 -2.4217520080
0.5774631250 0.9194878125 -3.2486594960
1.7193012500 0.9289478125 -3.2299438560
1.6616678125 0.3745971875 -2.4123359040
-1.6544115625 1.6716921875 -3.2688387120
0.5776512500 2.0853925000 -3.2334797520
1.1485837500 2.0673593750 -4.0364260400
1.6520600000 1.4981334375 -2.4159495120
2.1675493750 -1.3223843750 -4.0218809440
1.7152431250 2.0442468750 -3.2279233440
1.7124884375 2.0676818750 -6.4626340541
-1.7280087500 -2.1311068750 -2.4270493760
-0.5935746875 -2.0379178125 -2.4618125440
0.5275428125 -0.7631290625 -2.4140973760
0.5149250000 0.3816921875 -2.4316473360
0.5662831250 1.5048387500 -2.4621363440
1.6795934375 -0.7671737500 -2.4489253040
-1.0999937500 1.8361268750 -4.0469819200
2.2111137500 -1.8768021875 -4.8236486000
-2.1492878125 2.2342396875 -4.9115667760
-1.6008496875 2.2183028125 -2.4291864560
-1.7241790625 -1.5712468750 -6.4696737640
-0.5865737500 -0.3049237500 -6.4743250474
-0.5562587500 -1.4446925000 -6.4304835635
0.5817765625 -0.2432456250 -6.4678221590
6.6763278125 -1.4635318750 -4.8869579760
6.6979621875 -0.3199468750 -4.8322228240
2.2496256250 -0.7731534375 -4.8453172960
2.2418050000 -0.1988615625 -4.0330067120
2.2661268750 0.9210600000 -4.0918346960
2.2476906250 1.5140971875 -4.8359659520
6.6957046875 -1.9703675000 -4.0091102720
6.7030146875 -0.9016428125 -4.0784552800
6.7159684375 0.2563337500 -4.0825999200
2.7255550000 -1.9557475000 -5.7278095872
3.2737243750 -2.0250984375 -4.8706643600
3.8967943750 -1.5561565625 -6.4728636473
3.3714418750 -1.4805168750 -4.0179046800
3.8428965625 -2.0977684375 -5.6662293032
4.4055784375 -2.2283406250 -4.8894706640
4.4439021875 -1.6627562500 -4.0819652720
6.1146940625 -1.9055046875 -6.4521251898
5.5437078125 -1.7950753125 -4.0623300400
2.8204909375 -0.2701206250 -3.2475585760
2.8070803125 -0.8035356250 -5.6835461272
3.3296378125 -0.9496281250 -4.8584635760
3.3620759375 -0.3600578125 -4.0815896640
3.9228900000 -0.9866887500 -5.6430219096
4.4754265625 -1.0756181250 -4.8353313040
5.0435640625 -0.6380393750 -6.4584273740
4.4603228125 -0.5150459375 -4.0425523360
5.0055493750 -1.2074400000 -5.6801630648
5.5757428125 -1.2278246875 -4.8610021680
5.6034912500 -0.6951756250 -3.9974793760
6.1202034375 -1.3314143750 -5.6854604328
2.8169031250 0.3155259375 -5.6148823944
3.4076559375 0.2085634375 -4.8565466800
3.9299043750 0.6593781250 -6.4439279986
3.3418390625 0.7661525000 -4.0590531840
3.9405065625 0.0791200000 -5.6924247232
4.4994259375 0.0508475000 -4.8541376080
5.0595278125 0.5497818750 -6.4482968377
4.4808821875 0.5936687500 -3.9943061360
5.0411856250 -0.0489125000 -5.7127580680
5.5620634375 -0.1674850000 -4.8751716560
5.6050903125 0.3870806250 -4.0476942800
6.1676915625 -0.1802909375 -5.6579724032
2.8082628125 1.3793862500 -5.6577185440
3.3934659375 1.3377837500 -4.8745758640
3.4126143750 1.8348100000 -4.0054448560
3.9383565625 1.2562584375 -5.7016465472
4.4801296875 1.1065243750 -4.8791349680
4.5281284375 1.6786528125 -4.0737018960
5.0788375000 1.1073978125 -5.6451525136
5.6280953125 0.9550971875 -4.8266793680
5.6127496875 1.5567209375 -4.1021185840
6.1968778125 0.8739481250 -5.6266557624
2.7766443750 -1.3834981250 -3.2981231840
2.7412500000 -1.8935453125 -2.4120898160
3.9312884375 -1.5696746875 -3.2012292720
3.8347131250 -2.1577668750 -2.4678611280
5.0044340625 -1.7194221875 -3.2236103280
6.1012431250 -1.9130565625 -3.2474031520
2.8038956250 0.2675809375 -2.4177239360
2.7169818750 -0.8326143750 -2.4379679120
3.9063484375 -0.4460040625 -3.2275218320
3.8245409375 -0.9962025000 -2.4293030240
5.0111259375 -0.6273834375 -3.2358758720
5.0091775000 -1.1612015625 -2.3887244080
6.1703925000 -0.7753034375 -3.2101013920
6.1165618750 -1.3610306250 -2.4362323440
2.8450009375 1.9684862500 -3.2273405040
2.7782971875 0.8477718750 -3.2044154640
3.8851171875 0.6812006250 -3.2404867840
3.9496709375 0.1235175000 -2.4237984240
5.0630618750 0.5402412500 -3.2352023680
5.0354612500 -0.0455262500 -2.4640920960
6.1854559375 0.3457334375 -3.2424295840
6.1324584375 -0.2109821875 -2.4214023040
2.2745790625 2.0608421875 -4.0217125680
3.9892578125 1.8256456250 -3.2278844880
3.9573437500 1.2493246875 -2.4490936800
5.0803156250 1.6485528125 -3.2357852080
5.0543006250 1.0836537500 -2.4170633840
6.1479653125 1.4262831250 -3.2527652800
6.1969450000 0.8917796875 -2.4059505680
5.0864162500 2.1674150000 -5.6039781056
5.6802059375 2.1482531250 -4.8460685120
6.2094553125 1.9719665625 -5.6802524336
6.2109065625 1.9860893750 -2.4373591680
2.8289296875 1.4143640625 -2.4191486560
2.8381881250 1.9127071875 -6.4651466773
5.1026621875 2.1846150000 -2.3860433440
2.7853787500 -1.3753281250 -6.4682080379
2.7659212500 -0.2289615625 -6.4663108937
6.1706478125 -0.7509815625 -6.4531237890
3.9766131250 1.8244765625 -6.4536335798
-2.2591528125 6.6552443750 -4.8477134160
-6.6912779719 6.4479575000 -4.8283372240
-6.1802421875 6.3313603125 -5.6724177688
-5.5630712500 6.3406590625 -4.9095980720
-5.0268612500 6.3465178125 -5.6760909560
-4.4442918750 6.3731643750 -4.8460296560
-3.8985681250 6.4705862500 -5.7186952648
-3.3836431250 6.5515606250 -4.7977057440
-2.8220631250 6.6041953125 -5.6443637368
-6.1479465000 6.3346121875 -2.4140973760
-4.9983737500 6.2771400000 -2.4936226560
-3.9044671875 6.4323565625 -2.4236170960
-2.8095528125 6.6128087500 -2.3712651120
-3.8207650000 2.5191818750 -3.2793945920
-6.6661096688 2.4901300000 -4.0258054000
-5.5793521250 2.3849143750 -4.0302738400
-4.4097843750 2.4548968750 -4.0355323520
-2.6987875000 2.6942456250 -6.4588661878
-6.6709043031 3.0293231250 -4.8828133360
-6.6602415125 3.5658287500 -4.0398065120
-6.0990138438 3.0058209375 -5.6779094168
-5.5393150938 2.9291331250 -4.8652892800
-5.5490330938 3.4823415625 -4.0702437120
-4.9788490625 2.9683303125 -5.6597714360
-4.4201312500 3.0121768750 -4.8299562240
-3.8827925000 3.6790262500 -6.4642642835
-4.4383793750 3.6013171875 -4.0501422080
-3.8822415625 3.0934737500 -5.7003578232
-3.3524950000 3.1750931250 -4.8226772000
-3.2864496875 3.7322521875 -4.0015981120
-2.8088540625 3.2607437500 -5.6678780928
-6.6981673781 4.1384409375 -4.8517285360
-6.1074485625 4.6642100000 -6.4730840903
-6.6809394281 4.7018887500 -4.0561648880
-6.1240989688 4.1058415625 -5.6569453096
-5.5780688438 4.0772868750 -4.8370021120
-5.0024856250 4.6170846875 -6.4654201847
-5.5515539688 4.6492675000 -4.0732226720
-5.0052403125 4.0708234375 -5.6394924896
-4.4261109375 4.1288734375 -4.8748996640
-4.4373043750 4.7101662500 -4.0867057040
-3.8587393750 4.2451078125 -5.6444492200
-3.2799728125 4.2667959375 -4.8624657440
-2.7946371875 4.9815365625 -6.4627901257
-3.3689559375 4.8225843750 -4.0398583200
-2.7425131250 4.3831243750 -5.7185022800
-6.6950881750 5.2716253125 -4.8480113120
-6.7059389697 5.8477312500 -4.0923009680
-6.1223816563 5.2151340625 -5.6180776528
-5.5298725625 5.2322400000 -4.8612353040
-5.6061800938 5.7879746875 -4.0569290560
-4.9820337500 5.1839456250 -5.6915673008
-4.4307737500 5.2900750000 -4.8637868480
-4.4838115625 5.8399106250 -4.0170109920
-3.8704031250 5.3602053125 -5.6559739096
-3.2980059375 5.3753628125 -4.8506405680
-3.3161062500 5.9643418750 -4.0903840720
-2.7597803125 5.5397034375 -5.6407410624
-6.1172458438 2.4492262500 -3.1924737200
-4.9838746875 2.4129046875 -3.2686185280
-3.2466881250 2.5932090625 -4.0591568000
-2.7298684375 2.7197768750 -3.1676447360
-6.0958130313 3.6114356250 -3.2413675200
-6.0893979688 3.0257756250 -2.4547407520
-4.9919640625 3.5265509375 -3.2337258400
-4.9466662500 2.9608456250 -2.4388745520
-3.8682665625 3.6296971875 -3.2528948000
-3.8740984375 3.0700118750 -2.4289144640
-2.6816681250 3.8196765625 -3.2546174160
-2.7885231250 3.2959634375 -2.3995522800
-6.1118869688 4.7050331250 -3.2671290480
-6.0943537188 4.1511125000 -2.4091756160
-4.9964925000 4.5960684375 -3.2546303680
-4.9992875000 4.0724359375 -2.3860692480
-3.9186706250 4.7773671875 -3.1948050800
-3.8525984375 4.1868025000 -2.4561136640
-2.7930515625 4.9374346875 -3.2536071600
-2.7670768750 4.3906896875 -2.4428767200
-6.1463864063 5.7851796875 -3.2334927040
-6.1258592813 5.2197296875 -2.3935425520
-5.0396134375 5.6999053125 -3.2449681760
-5.0087609375 5.1547728125 -2.4196408320
-3.8776862500 5.8738134375 -3.2796795360
-3.8871731250 5.3573028125 -2.4129187440
-2.7859028125 6.0881146875 -3.2413157120
-2.7671306250 5.5130165625 -2.4442755360
-6.1552538125 5.7536015625 -6.4639094893
-5.0624168750 5.7902993750 -6.4256671033
-1.5661943750 2.2491284375 -5.6949879240
1.1744375000 2.6145746875 -4.8801581760
-2.1855153125 2.7836587500 -4.0517871120
-1.0524115625 2.4096528125 -4.8267182240
-0.5171018750 4.1321925000 -6.4338029021
-1.1254712500 2.9807331250 -4.0243806800
-0.4910734375 2.4084300000 -5.6935023296
0.0224003125 2.5265993750 -4.7923436160
0.0481868750 3.1238559375 -4.0690780320
0.5627759375 2.6230403125 -5.6155183376
1.7244343750 2.6336156250 -5.6788264184
1.7182665625 3.2109175000 -6.4371199093
1.1571837500 3.7435531250 -4.8434522080
-2.2291334375 3.3257275000 -4.8889784880
-2.1235415625 3.8787209375 -4.0520720560
-1.6427746875 3.4347190625 -5.6151310728
-1.0257784375 3.4884556250 -4.9113206880
-1.0548437500 4.0514600000 -4.0723160320
-0.4506668750 3.5350837500 -5.6679156536
0.5691050000 4.2872612500 -6.4531331145
0.0176971875 4.2951893750 -4.0310509600
0.0794559375 3.7138428125 -4.8112276320
0.6158406250 3.6924368750 -5.6868411160
1.1718440625 4.2774250000 -4.0163504400
1.7106878125 3.8012940625 -5.6639290280
-2.2325734375 4.4574471875 -4.8074197440
-2.2041934375 5.0160037500 -3.9845662320
-1.6944284375 4.5417540625 -5.6840123992
-1.1334934375 4.6109706250 -4.8608856000
-1.0242062500 5.1729940625 -4.0450779760
-0.5542700000 4.6836809375 -5.6125769384
0.0619200000 4.8023475000 -4.9240913600
0.0395331250 5.3415809375 -4.0509063760
0.6552393750 4.8471481250 -5.6660842408
1.1769503125 4.8513271875 -4.8166415680
1.1161053125 5.4446331250 -4.0656846080
1.7277400000 4.8966787500 -5.6767035856
-2.1660309375 5.5343150000 -4.8582304400
-2.2074721875 6.1002353125 -4.0440418160
-1.6347390625 5.6732050000 -5.6985833992
-1.1056778125 5.7438190625 -4.8294122400
-0.5574009375 6.3778271875 -6.4696981008
-1.1104750000 6.2973096875 -4.0042144160
-0.5599003125 5.8007940625 -5.7023705640
-0.0173478125 5.9071653125 -4.8675817840
0.0395465625 6.4614890625 -4.0442231440
0.5580325000 5.9907196875 -5.6389005832
1.1303490625 6.0121256250 -4.8502649600
1.6733584375 6.5360671875 -6.4689527002
1.1394731250 6.5979871875 -4.0826128720
1.6867153125 5.9872931250 -5.6213532136
-1.6461340625 2.8118640625 -3.1802081760
-0.5144681250 2.9834071875 -3.2789671760
-0.5157984375 2.4656468750 -2.3722624160
1.1924303125 3.1486346875 -4.0429668000
0.6006428125 2.6280390625 -2.4047201280
1.7172453125 3.2469165625 -3.1832778000
-1.5925050000 3.9890025000 -3.1769313200
-1.6032818750 3.3970268750 -2.4371648880
-0.5233100000 4.0892059375 -3.2113447840
-0.4679206250 3.5153978125 -2.4065593120
0.6038275000 4.2617703125 -3.2507577200
0.6019059375 3.7174843750 -2.3968194080
1.7464987500 4.4026625000 -3.2489573920
1.7362593750 3.8313671875 -2.4494433840
-1.5932978125 5.0803962500 -3.2694863120
-1.6849012500 4.5642887500 -2.3971691120
-0.5068221875 5.2616546875 -3.1682146240
-0.4958437500 4.6596681250 -2.4372037440
0.5795996875 5.4090237500 -3.1984834480
0.6439115625 4.8155968750 -2.4323078880
1.6809237500 5.4636068750 -3.2856374560
1.7260468750 4.9311996875 -2.3819505120
-1.6725656250 6.2327425000 -3.2091040880
-1.7092768750 5.6398531250 -2.4606986720
-0.5218587500 6.3664187500 -3.2433880320
-0.5826634375 5.8362556250 -2.4006661520
0.5828918750 6.5060343750 -3.2378186720
0.6092428125 5.9689643750 -2.3946175680
1.6745275000 6.5657506250 -3.2274570720
1.7257109375 5.9943343750 -2.4269328080
0.6011534375 3.1735209375 -3.2552909200
1.7283715625 2.6346100000 -2.4821601360
2.2220921875 6.5277225000 -4.0557763280
-1.6534709375 2.8664740625 -6.4072787603
-1.5668528125 3.9642775000 -6.4672448754
-0.4788856250 5.2163031250 -6.4717343106
0.5868962500 5.4338293750 -6.4447922855
-1.6995346875 6.2508159375 -6.4652904704
5.0192018750 6.6931650000 -5.6258890040
3.9509743750 2.4033371875 -5.6665932544
4.4912425000 2.2556053125 -4.8442811360
5.6011262500 6.5556053125 -4.8584117680
6.1787909375 6.4832846875 -5.6406503984
6.1592528125 6.5335275000 -2.3759666880
2.3066543750 2.5901050000 -4.8844711920
2.8534531250 2.5217081250 -5.7395894312
2.2672287500 3.1296878125 -4.0043827920