ITEM: TIMESTEP
120000
# source: voids-relax.120000.cfg
ITEM: NUMBER OF ATOMS
2298
ITEM: BOX BOUNDS pp pp pp
-6.7187500000 6.7187500000
-6.7187500000 6.7187500000
-6.4760000000 6.4760000000
ITEM: ATOMS x y z
-6.7018417281 -6.2092658438 -4.0345091440
-6.2166873750 -6.1634399375 -6.4525887419
-6.1650981250 -6.7056184450 -5.6426035600
-5.6008145000 -6.6023043875 -4.8568057200
-5.6270041875 -6.0331109688 -4.0320094080
-4.5212618750 -6.4272234375 -4.8083522880
-3.9687118750 -5.2346721875 -5.7000780600
-4.5091143750 -5.8387993438 -4.0573564720
-3.9626784375 -6.3743267188 -5.6537176712
-3.4007221875 -6.2754630000 -4.8642142640
-3.3730006250 -5.7303425938 -4.0457644320
-2.8218078125 -6.3354695000 -5.6227714576
-6.2480827500 -5.5787017500 -5.6820514664
-5.6864113750 -5.5136346875 -4.8843028160
-5.5567704063 -4.9452418750 -4.0694277360
-5.1270781250 -5.4036178438 -5.6667072320
-4.5228609375 -5.3174606250 -4.9089116160
-4.4839056250 -4.7543353125 -4.0775486400
-3.3793028125 -4.6208068750 -4.0393661440
-2.8581965625 -5.1508490625 -5.7006000256
-6.1194200313 -4.4596778125 -5.7197094064
-5.0999209375 -4.3086671875 -5.6425828368
-5.5715449375 -3.8014015625 -4.0352992160
-4.5122184375 -4.1986409375 -4.9161258800
-3.9074503125 -4.1371643750 -5.6908925016
-3.8908146875 -3.5346940625 -6.4301089917
-4.4542356250 -3.6736781250 -4.0592992720
-3.3763734375 -4.0805253125 -4.8690194560
-3.4035306250 -5.1765684375 -4.8649007200
-3.9279021875 -3.5392628125 -3.2141424160
-2.7847875000 -4.0437603125 -5.6834930240
-6.6984988813 -3.4981978125 -4.8710270160
-6.1381962500 -3.3184846875 -5.6892009704
-6.6973713406 -2.9132096875 -4.1031676960
-5.6007795625 -3.2442559375 -4.8593961200
-5.6765334688 -4.3667440625 -4.8092718800
-5.0499737500 -2.6116990625 -6.4578059370
-5.5920599688 -2.7036518750 -4.0057168480
-5.0335531250 -3.2071684375 -5.7004977048
-4.5077975000 -3.0816487500 -4.8312255200
-4.4525021875 -2.5229040625 -4.0364648960
-3.9426162500 -2.9940362500 -5.6327354312
-3.3553975000 -2.9562634375 -4.8664031520
-2.7545934375 -2.3925737500 -6.4544794749
-3.3226368750 -2.3830465625 -4.0783775680
-2.7870450000 -2.9690693750 -5.6490717888
-6.1696023750 -6.1358460313 -3.1723722160
-5.0519221875 -6.0041356875 -3.2313038160
-5.0565446875 -6.5643585000 -2.4073364320
-3.9458815625 -5.8151157500 -3.2525710000
-3.9558790625 -6.3513768125 -2.3837508400
-2.8356215625 -5.7150762500 -3.2034052080
-2.7925812500 -6.2929478750 -2.4485367440
-6.1151872188 -4.9994084375 -3.2401759360
-6.1843312188 -5.5427416563 -2.4260261680
-5.0360928125 -4.8444471875 -3.2024338080
-5.0320078125 -5.4383752813 -2.4409986800
-3.9395390625 -4.6963793750 -3.2321975040
-3.9186840625 -5.2615740625 -2.4195890240
-2.8206387500 -4.0646825000 -2.3940865360
-6.1439663125 -3.8814621875 -3.2419633120
-6.2092309063 -4.4319159375 -2.4254174240
-5.0157887500 -3.7235043750 -3.2327026320
-5.0525940625 -4.2800453125 -2.4141621360
-3.9044806250 -4.1393009375 -2.4548832240
-3.3700712500 -3.5049971875 -4.0615788240
-6.1882872188 -2.7243187500 -3.2316146640
-6.1618610313 -3.3052487500 -2.4662421280
-5.0248456250 -2.5984228125 -3.2274052640
-5.0674156250 -3.1648537500 -2.4250159120
-3.8973184375 -2.4503146875 -3.2410437200
-3.9177031250 -2.9928268750 -2.3976224320
-2.8090825000 -2.3979218750 -3.2329616720
-2.8188112500 -3.5299640625 -3.2636708640
-2.2843346875 -5.8098885625 -4.0132678640
-2.2989815625 -5.2617487500 -4.8679314880
-2.7872465625 -4.5947112500 -3.2775295040
-2.2862025000 -4.0897837500 -4.8007235600
-5.1226571875 -5.9822755625 -6.4503682510
-2.8101440625 -5.1342000000 -2.4337714640
-2.7659346875 -2.9716225000 -2.4466975600
-6.1395561250 -2.7244934375 -6.4737018489
-6.7024789344 -5.0819953125 -4.0087605680
-5.0330962500 -6.5375359063 -5.6796307376
-2.8316843750 -5.7680562813 -6.4165231208
-6.2283040938 -3.8662509375 -6.4730084248
-3.9282650000 -5.8301429063 -6.4645074961
-2.2238928125 -4.6958015625 -4.0864984720
-2.2113690625 -6.3313992813 -4.8967885440
-2.2274134375 -3.4932796875 -4.0700882880
-1.6978550000 -4.7458831250 -3.2329357680
-1.7160090625 -5.2151475000 -5.6505871728
-1.7528143750 -5.7888817188 -6.4516501105
-1.6494262500 -6.3734909063 -5.7007282504
-1.1363959375 -6.5382736250 -4.8400069760
-1.1396881250 -5.9543699063 -4.0680289200
-0.5471346875 -6.5301210938 -5.6636933016
0.5839668750 -6.1996835625 -6.4756705309
0.0032787500 -6.0397585000 -4.0695313520
1.1227703125 -6.2383553438 -3.9943579440
-1.1521850000 -5.3721243750 -4.8134165200
-0.6382946875 -5.4889701563 -5.6534599264
-0.5925803125 -4.3519493750 -5.6847921096
-1.1228106250 -4.7830781250 -4.0810327280
-0.5435468750 -4.9260531250 -6.4537121984
-0.0252759375 -5.4854078750 -4.8736044640
-0.0041790625 -4.9565025000 -3.9977772720
0.5127078125 -5.6368767188 -5.6873112736
1.0869056250 -5.7189731250 -4.9010238480
1.1167100000 -5.1765684375 -4.0631071600
-1.6522078125 -3.6399768750 -6.4652422890
-1.7333568750 -4.1853109375 -5.6484941296
-1.1349984375 -4.2051715625 -4.8648618640
-0.5597525000 -3.7687350000 -6.4134395086
-1.1041325000 -3.6902465625 -3.9973498560
-0.0185571875 -4.4384465625 -4.9051296320
1.1048446875 -4.0147353125 -4.0988805840
0.0093390625 -3.9003418750 -4.0624725120
0.5392603125 -5.0362540625 -6.4114205509
0.5971893750 -4.4554853125 -5.6569181104
1.1748540625 -3.4287662500 -4.8381677920
1.1287500000 -4.6079337500 -4.8364710800
-2.2090309375 -2.9437800000 -4.8676983520
-1.6807087500 -2.4600434375 -6.4178597672
-2.2154137500 -2.4041568750 -4.0082424880
-1.6547071875 -3.0610625000 -5.6912383200
-1.1084056250 -3.1618034375 -4.8896390400
-1.0959087500 -2.6055715625 -4.0628222160
-0.4956556250 -3.1741121875 -5.6607467216
0.0251415625 -3.3220590625 -4.8354608240
0.6009518750 -3.3965968750 -5.6434117648
1.1106093750 -2.8888743750 -3.9853044960
1.7096665625 -2.9826412500 -6.4434104366
1.7124346875 -2.9698621875 -3.2646811200
1.6908675000 -3.5713112500 -5.7066343624
-1.6845250000 -5.8159220000 -3.2497215600
-1.6775778125 -6.3823610000 -2.4517229360
-0.5744531250 -6.0276889375 -3.2527652800
-0.6064478125 -6.5693585938 -2.3843854880
0.5224365625 -6.2212574688 -3.2258639760
1.6989165625 -6.3178851875 -3.2227295920
-1.6864734375 -5.2975596875 -2.3846833840
-0.6010728125 -4.9328928125 -3.2296459600
-0.5381853125 -5.4863619375 -2.4114940240
0.5889387500 -5.0283931250 -3.2306432640
0.5342615625 -5.6188462813 -2.4862788720
1.6829796875 -5.2030000000 -3.2155671360
1.6147037500 -5.7622795000 -2.4068960640
-1.7081884375 -3.6518153125 -3.2401888880
-1.6789215625 -4.1874878125 -2.4128798880
-0.5326490625 -3.7504868750 -3.2247242000
-0.5776915625 -4.3390493750 -2.4859421200
0.5679896875 -3.9206593750 -3.2161888320
0.4913018750 -4.4875606250 -2.3973763440
1.6116265625 -4.1263471875 -3.2128731200
1.6986343750 -4.6649893750 -2.3646725440
-1.6956915625 -3.0566953125 -2.4741946560
-0.0014243750 -2.7313734375 -4.0912518560
-0.5934000000 -3.2056365625 -2.4009251920
0.5152206250 -2.8581696875 -3.2291667360
0.6142684375 -3.3835759375 -2.3645430240
2.2328690625 -6.4601829375 -4.0721994640
1.6931384375 -5.7439843438 -5.6609992856
2.2260293750 -5.8798159688 -4.8428564160
2.1999740625 -4.1995815625 -3.9928555120
2.2139625000 -5.2969818750 -4.0868481760
0.5780409375 -2.2910668750 -5.7014859424
1.1303356250 -2.3600818750 -4.8660534480
1.6977878125 -2.3858684375 -5.6981715256
-1.6320112500 -2.4813418750 -3.2386605520
-0.5378628125 -2.6405225000 -3.2184554320
0.6033975000 -2.2572178125 -2.4863436320
1.7197446875 -3.5419368750 -2.4668379200
2.2010893750 -2.5720181250 -4.8207214480
1.6375340625 -2.4174734375 -2.4494045280
1.7066028125 -4.6645728125 -5.6426359400
1.6641806250 -6.3325038438 -6.4069710208
-0.0359184375 -6.6522257750 -4.7801039760
2.2961462500 -4.7227437500 -4.8645898720
2.2866862500 -3.1404109375 -4.0122835120
6.6496006250 -5.6564712813 -4.8224958720
6.1125037500 -5.6363351875 -5.7544531464
6.7012678125 -4.5492656250 -4.8661959200
6.6973171875 -3.9984087500 -3.9831933200
3.3293825000 -6.5673819375 -4.0913554720
4.4325743750 -6.5200214688 -3.9915732640
5.0021631250 -6.3959301875 -6.4539988262
5.6010725000 -6.3735164375 -4.0172182240
2.8269946875 -4.8494593750 -5.7126427952
2.7572675000 -6.4831960000 -6.4694309917
3.3992306250 -5.9790492188 -4.8403955360
2.7496081250 -5.4378041875 -3.2410696240
3.9253759375 -5.9983629375 -5.6740536064
4.5184668750 -5.9971145938 -4.8749255680
5.0458350000 -4.7616184375 -5.6366883816
4.4555390625 -5.4536913438 -4.0269451760
5.0362137500 -5.8379729375 -5.7144055624
5.5896775000 -5.8321491250 -4.8504074320
5.5615125000 -5.2676746875 -4.0269451760
3.3805928125 -4.8608946875 -4.8525186080
3.3253512500 -5.4172743750 -4.0373067760
3.3407506250 -4.3011153125 -4.0128793040
3.9243815625 -4.8908737500 -5.6640935184
4.4855450000 -4.8946093750 -4.8160846320
4.4680493750 -4.2885243750 -4.1122859040
5.6508181250 -4.7135525000 -4.8348132240
5.5903225000 -4.1501987500 -4.0653608080
6.2032471875 -4.6755512500 -5.7730133624
2.2565862500 -3.6611812500 -4.8752234640
2.7810384375 -2.5555975000 -5.6119992792
2.8074834375 -3.6589640625 -5.7075345264
3.3449700000 -3.7710462500 -4.8590464160
3.9605687500 -3.2168971875 -6.4405350926
3.4019315625 -3.1936503125 -4.0831180000
4.4952468750 -3.7003515625 -4.8466384000
4.5556215625 -2.6473890625 -4.9462263280
5.0901115625 -2.6857262500 -5.7725056440
5.5828512500 -3.5918437500 -4.8627765920
6.1802959375 -3.5125893750 -5.6207159752
5.6250181250 -3.0116528125 -4.0788826960
6.0611053125 -4.1399728125 -6.4397416531
2.7880662500 -6.4852573125 -3.2271073680
3.8559040625 -6.5720245938 -3.2146734480
5.0365631250 -6.4908580625 -3.2545397040
6.1702312500 -6.2847711563 -3.2200744320
2.7936293750 -5.9445255938 -2.3531064080
3.8841631250 -5.4096096250 -3.2331559520
3.9278753125 -5.9903165625 -2.4467364160
5.0159634375 -5.3004218750 -3.2199060560
5.0109378125 -5.8975870625 -2.4747256880
6.1560412500 -5.1808281250 -3.2576999920
6.1054893750 -5.7133387813 -2.4127244640
2.7888859375 -4.2909296875 -3.2239729840
2.8124418750 -4.8621712500 -2.4525389120
3.9439600000 -4.3249131250 -3.2522990080
3.8964853125 -4.8736200000 -2.3940994880
5.0090700000 -4.2047818750 -3.2510426640
5.0416425000 -4.7389628125 -2.4086963920
6.1103403125 -4.0148025000 -3.2154764720
6.1599784375 -4.5950471875 -2.4736895280
2.8653050000 -3.1136031250 -3.2296200560
2.7736746875 -3.7096637500 -2.4652448240
6.1731337500 -2.8897612500 -3.2549412160
3.9130134375 -3.7971956250 -2.4020520160
4.4802909375 -3.1454903125 -4.0255593120
5.0446121875 -3.6557659375 -2.3699051520
5.0671468750 -3.1407468750 -3.2540475280
6.1706746875 -3.4421903125 -2.4219851440
3.3744518750 -2.6147359375 -4.8525315600
3.9105275000 -3.8082412500 -5.6409573608
3.9185496875 -2.6784296875 -5.6480252672
5.6068237500 -2.4362725000 -4.8671025600
6.1720453125 -2.4784796875 -5.6878941136
2.7692940625 -2.5864768750 -2.3551916800
3.9273646875 -3.2358171875 -3.2028871280
5.0631559375 -2.5823918750 -2.4529274720
6.1583256250 -2.3668543750 -2.3560594640
3.9559328125 -2.6437206250 -2.4514768480
2.8128046875 -5.9495404688 -5.6178445168
2.8524453125 -4.2668093750 -6.4449912282
5.0551606250 -3.8318912500 -5.7350665928
6.7129046875 -2.3139912500 -4.8257597760
-6.1708157813 -2.2062225000 -5.6210332992
-6.7020739281 -1.7122734375 -4.1160549360
-5.5470040313 -2.1705325000 -4.8900146480
-5.5834169688 -1.6215300000 -4.0888816400
-4.9942081250 -2.0351362500 -5.6856054952
-4.4464687500 -1.9471071875 -4.8384138800
-3.9308046875 -1.3264693750 -6.4493341634
-4.4708309375 -1.4033050000 -4.0004971920
-3.8984606250 -1.9251906250 -5.6911359992
-3.3583940625 -1.7962712500 -4.8332460320
-2.7803800000 -1.2541621875 -6.4433112243
-3.3162675000 -1.2426731250 -4.0171275600
-2.8081150000 -1.8265996875 -5.6593207064
-6.1541720938 -0.6017312500 -6.4719913171
-6.1255717188 -1.1642250000 -5.6578105032
-5.5917589688 -1.0144775000 -4.8126912080
-5.5792352188 -0.4115637500 -4.1163787360
-5.0447734375 -0.9156446875 -5.6385469936
-4.4396290625 -0.8825212500 -4.8875926240
-4.4396693750 -0.3222312500 -4.0859933440
-3.8917821875 -0.7523790625 -5.6974423280
-3.3365178125 -0.7161515625 -4.8885381200
-3.3534087500 -0.1739484375 -4.0200935680
-2.7479821875 -0.6840493750 -5.6681280664
-6.1329529375 0.5746278125 -6.4012024590
-6.1189255313 -0.0320215625 -5.6896167296
-5.5967617500 0.1791084375 -4.8655612720
-5.6057500938 0.7115156250 -4.0174513600
-4.9985081250 0.1293896875 -5.6589178992
-4.4707234375 0.2709000000 -4.8307203920
-4.4832471875 0.8650525000 -4.1107575680
-3.8917150000 0.3971721875 -5.6337405064
-3.3169393750 0.3713050000 -4.8556918480
-3.3542150000 0.9506359375 -4.0923398240
-2.7618362500 0.4371890625 -5.6691966064
-6.7126227956 1.0022762500 -4.8488013840
-6.1960231875 1.1840587500 -5.6927575896
-5.5981175938 1.2369621875 -4.9302953680
-5.0165950000 1.8504378125 -6.4154698642
-5.5943927188 1.7447518750 -4.0033725360
-5.0046625000 1.2593490625 -5.6851016624
-4.4821721875 1.4642306250 -4.8423901440
-4.4842146875 2.0073878125 -4.0061054080
-3.8880868750 1.4327465625 -5.6361016560
-3.3496193750 1.5636009375 -4.8011898320
-2.8168628125 1.5564656250 -5.6766336448
-6.1621203750 -1.6396571875 -3.2730351600
-6.1176167188 -2.1723062500 -2.4069608240
-5.0601593750 -1.4442625000 -3.2363550960
-5.0064765625 -2.0175868750 -2.4644418000
-3.8808037500 -1.3372328125 -3.2409789600
-3.9153112500 -1.8817471875 -2.4204179520
-2.7403093750 -1.2502250000 -3.2189476080
-2.7754081250 -1.8365703125 -2.4477725760
-6.0977292188 -0.5906721875 -3.2759234560
-6.1301660000 -1.1229584375 -2.3829089600
-5.0234346875 -0.3420381250 -3.2829434400
-4.9984543750 -0.8871975000 -2.4230342560
-3.9295550000 -0.1351678125 -3.2152303840
-3.9150290625 -0.7398150000 -2.4876776880
-2.7909418750 -0.1367937500 -3.2181057280
-2.8092303125 -0.6992740625 -2.4065722640
-6.1591130625 0.5684196875 -3.1833037040
-6.1459604375 -0.0490200000 -2.4702961040
-5.0033590625 0.6979706250 -3.2515607440
-5.0553353125 0.1700918750 -2.3740109360
-3.9318662500 0.9340406250 -3.2759752640
-3.8806693750 0.4105425000 -2.3955112560
-6.1795756875 1.7612531250 -3.2107619440
-6.1599461875 1.1545768750 -2.4801914320
-5.0364825000 1.8492956250 -3.2004003440
-5.0325587500 1.2558150000 -2.4518395040
-2.7621856250 2.1060325000 -3.2503821120
-3.9293668750 1.4706671875 -2.3849942320
-2.8323293750 0.9827918750 -3.2566249760
-2.8231650000 1.5328425000 -2.4382399040
-2.2522459375 1.4691756250 -4.8736692240
-3.3366790625 2.1580490625 -4.0642080800
-3.8681590625 1.9872046875 -3.2704318080
-2.7548756250 0.4353212500 -2.4291994080
-6.7093500925 -0.5770600000 -4.0192387360
-6.7156351741 -0.0631965625 -4.9287411280
-6.6895742313 0.4542950000 -4.0224119760
-6.6993754094 1.5732759375 -4.0580817840
-6.6876991625 2.1496237500 -4.8251380800
-3.9198665625 -0.1572053125 -6.4490141194
-2.8130734375 -0.1206821875 -6.4741837022
-5.0374903125 0.6945978125 -6.4693739122
-3.9208609375 1.9884409375 -6.4707462414
-2.2107643750 -1.3300571875 -4.0748934800
-2.2208021875 -0.7298578125 -4.8214208560
-2.2065987500 2.0341687500 -4.0582242560
1.7746100000 -1.8375512500 -3.2354355040
-1.6284906250 0.8663559375 -3.2324306400
-2.2266743750 -1.8777965625 -4.8979671760
-1.6221750000 -1.8823518750 -5.6547084992
-1.1248262500 -1.4463856250 -4.0936350240
-0.5209181250 -2.1085990625 -5.6475305008
-0.5918815625 -1.5522731250 -3.2620518640
-1.0822562500 -2.0394496875 -4.8388801520
0.0552146875 -2.1427168750 -4.8390744320
0.0203712500 -1.6136825000 -3.9836984480
1.1842200000 -1.8134309375 -4.0112991600
-2.2359865625 -0.1574471875 -4.0561001280
-1.6515762500 -0.8178600000 -5.6420932512
-1.0760212500 -0.8575409375 -4.8394370880
-0.5128153125 -0.4116981250 -6.4476202252
-0.5001437500 -0.3979650000 -3.2537366800
-0.5584625000 -0.9985540625 -5.7167705976
-0.0141765625 -1.0806840625 -4.8731770480
0.5683121875 -1.0958818750 -5.6894431728
0.0689075000 -0.5355515625 -4.0287325520
0.6011265625 -1.6953959375 -6.4332963494
1.0882090625 -1.2746812500 -4.8490604240
1.1591993750 -0.6746028125 -4.1227640720
1.6814612500 -1.2835365625 -5.6205644368
-2.2005653125 0.4095212500 -4.8390873840
-2.2147687500 0.9506896875 -3.9810303360
-1.6785721875 0.2690859375 -5.7037564280
-1.0896737500 -0.3178371875 -4.0024529440
-1.1259684375 0.2311787500 -4.8621030880
-0.5588118750 0.1766762500 -5.6858062512
-0.0277484375 0.0085328125 -4.8545779760
0.0094600000 0.6101968750 -4.1175055600
0.5596584375 -0.0024321875 -5.6133462872
1.1503843750 -0.0787571875 -4.8539821840
1.7109162500 -0.1970743750 -5.6201668104
1.0966209375 0.4807803125 -4.0501940160
-1.6839203125 1.4580493750 -5.6900169464
-1.0641559375 0.7706271875 -4.0284476080
-0.5514481250 1.8157959375 -6.4673120315
-1.1323109375 1.3181650000 -4.8832148480
-0.5331865625 1.2703543750 -5.6173238464
0.0586950000 1.1976171875 -4.8497468800
0.5344093750 1.6390525000 -6.4654933765
-0.0454859375 1.7550315625 -4.0407779120
0.6044456250 1.0775262500 -5.6446279576
1.1840587500 1.0518471875 -4.8362249920
1.7201881250 0.9432318750 -5.6899146256
1.1088625000 2.1444503125 -4.8319249280
-1.6683731250 -1.3660159375 -3.2164090160
-0.5275428125 -0.9798356250 -2.4790905120
0.6095115625 -1.6809506250 -3.2502137360
1.6764356250 -1.3184471875 -2.3555543360
-1.6164103125 -0.8160593750 -2.3842689200
-0.6005890625 0.1392125000 -2.4246532560
-0.5064325000 0.7271971875 -3.1977840400
0.6421243750 -0.5464896875 -3.2231311040
1.6636700000 -0.7712318750 -3.2045061280
-1.7172587500 1.4244018750 -2.4346003920
-1.6800637500 -0.2950337500 -3.2556794800
-0.6035318750 1.8256725000 -3.2179891600
-1.6777928125 0.2858828125 -2.4734304880
-0.5174109375 1.2659871875 -2.3723660320
0.5295046875 0.5131512500 -3.2249184800
1.6543309375 0.3548843750 -3.2515736960
1.7592240625 -0.1998021875 -2.4204827120
-1.6657259375 2.0125746875 -3.1871893040
0.5271531250 1.6215703125 -3.2730999200
1.1281453125 1.5999359375 -3.9937232960
1.6973981250 0.9167465625 -2.4619550160
1.7310859375 1.4794821875 -3.2632304960
1.6592490625 2.0520406250 -5.6802083968
-1.6637237500 -1.9399450000 -2.4121675280
-0.4976040625 -2.0879993750 -2.3972856800
0.5119956250 -1.1193437500 -2.4431746160
0.5809031250 -0.0168909375 -2.3502310640
0.6414928125 1.0787490625 -2.4289921760
-1.1338025000 1.8781593750 -4.0857990640
1.6459190625 2.0302450000 -2.4387061760
2.2222131250 -0.8056184375 -4.0594028880
2.2132368750 1.9636084375 -4.8545261680
0.5771271875 2.2137340625 -5.6836342008
0.5571187500 2.1816721875 -2.4693117520
1.7251734375 -0.7336203125 -6.4696212177
-1.6429896875 0.8682775000 -6.4355251295
-1.6531484375 2.0221287500 -6.4648932585
1.6575021875 0.3626378125 -6.4479371606
6.7111981250 -1.1211981250 -4.8656130800
2.3170281250 -0.2593034375 -4.8793810560
2.2573521875 -1.3834578125 -4.8518839600
2.2453390625 0.8429746875 -4.8143490640
2.2940365625 -1.9730146875 -4.1021703920
3.3753253125 -2.0578053125 -4.0644282640
3.9361662500 -2.1076315625 -6.4557166499
4.4883937500 -2.1237834375 -4.0186040880
5.0587618750 -2.0915334375 -6.4147262898
5.6032225000 -1.8930884375 -4.0263234800
2.7825568750 -0.9289343750 -6.4466756358
2.7674800000 -0.9258840625 -3.2356686400
2.8231112500 -1.4893990625 -5.6331641424
3.4085428125 -1.4652384375 -4.8517155840
3.3368671875 -0.9414850000 -4.0053541920
3.9471312500 -1.5260028125 -5.6849319912
4.4986600000 -1.5964018750 -4.8537360960
4.5282493750 -1.0092906250 -4.0585480560
5.0189734375 -1.4231118750 -5.7091263272
5.6009650000 -1.3840490625 -4.9459931920
6.1885600000 -0.7024856250 -6.4128139270
5.6488159375 -0.8477584375 -4.0424616720
6.1993503125 -1.3350290625 -5.7133111184
2.2430412500 0.2772156250 -4.0090066560
2.8651840625 -0.3485015625 -5.6935334144
3.3982228125 -0.3847962500 -4.8357069120
3.4001981250 0.1963890625 -4.0386278800
3.9599371875 -0.4226093750 -5.6762593320
4.4961740625 -0.4409515625 -4.8134553760
4.4939031250 0.1752250000 -4.0915756560
6.1337618750 -0.1199565625 -5.6842325832
5.5952137500 -0.3003146875 -4.8737987440
5.6305140625 0.2483787500 -4.0415809360
2.7859968750 0.7788509375 -5.6994472976
3.3277296875 0.7400568750 -4.8645898720
3.9618453125 1.2343284375 -6.4307349618
3.4417334375 1.2867078125 -4.0315819920
3.9114412500 0.6735412500 -5.6321318680
4.5025300000 0.7390893750 -4.8750162320
5.0764590625 0.7903265625 -5.6382309648
4.4948975000 1.3207718750 -4.0895162880
5.0148615625 -0.2977884375 -5.6781270104
5.6333896875 0.8410396875 -4.7990398000
5.6079256250 1.4475412500 -4.0739609360
6.1453181250 1.0154181250 -5.6715124240
2.8214718750 -2.0515031250 -3.2197376800
3.9215193750 -2.0693615625 -3.2203464240
5.0627259375 -1.9856862500 -3.2037419600
6.2019303125 -1.8426709375 -3.2640594240
2.8416550000 -0.3563356250 -2.4668508720
2.8661515625 -1.4786893750 -2.4122193360
3.9505309375 -0.9558228125 -3.2888625040
3.9397809375 -1.4977437500 -2.4336030880
5.0637068750 -0.8151187500 -3.2422223520
5.0614225000 -1.4125096875 -2.4625378560
6.1814515625 -0.7104809375 -3.1945201360
6.1889900000 -1.3019056250 -2.4373462160
2.8739050000 1.3372328125 -3.2211364960
2.8242534375 0.2296468750 -3.2393729120
3.9404662500 0.1353693750 -3.2280140080
3.9321215625 -0.4275140625 -2.4188637120
5.0225343750 0.2772425000 -3.2744857840
5.0512368750 -0.2790834375 -2.4408691600
6.1593200000 0.5014606250 -3.2331430000
6.1773396875 -0.1183037500 -2.5009664400
2.3050553125 1.4085053125 -4.0265954720
3.9850384375 1.2531140625 -3.1793015360
3.9739256250 0.6958206250 -2.4101211120
5.0432818750 1.3232981250 -3.2613136000
5.1552431250 0.8044762500 -2.3275132560
6.1697071875 1.5441837500 -3.2520788240
6.0854137500 1.0075706250 -2.3174106960
2.7725862500 1.9018496875 -5.6633552544
3.3408581250 1.8261696875 -4.8863880880
3.9257521875 1.8291125000 -5.6661127352
4.4754265625 1.8894468750 -4.8706384560
5.0612343750 1.9071575000 -5.6409780840
5.6127228125 2.0214703125 -4.8468585840
6.1864234375 2.0938312500 -5.6323714800
3.9259940625 1.8474546875 -2.4169468160
5.0651446875 1.8715481250 -2.4097973120
6.1757271875 2.1212168750 -2.4344708720
2.8035193750 0.7764321875 -2.4231249200
2.7763487500 1.9001431250 -2.4262334000
5.0303146875 1.3306753125 -6.4630588797
-6.1603305000 2.3191915625 -5.6770908504
-6.1569670938 6.7005287500 -2.4461276720
-3.9007853125 3.1634562500 -3.1908029120
-5.5917831563 2.2916715625 -4.8507830400
-5.5942905938 2.8566915625 -4.0481994080
-5.0684771875 2.4661171875 -5.7061836328
-4.4973834375 2.5263171875 -4.8972289120
-3.8915268750 3.1454231250 -6.4261196462
-4.4571112500 3.0587915625 -4.0040719440
-3.9219762500 2.5553690625 -5.6797796856
-3.3884403125 2.7076293750 -4.8604452320
-2.7961287500 2.6443118750 -5.6387050080
-6.1652110000 3.3880237500 -5.6155196328
-5.5776415313 3.4181371875 -4.8396702240
-5.6160499375 4.0054500000 -4.0792842080
-5.0498528125 3.6102531250 -5.6836445624
-4.4838921875 3.5932681250 -4.8541635120
-4.5016162500 4.1637437500 -4.0523440480
-3.9581903125 3.7396159375 -5.6973697968
-3.3788728125 3.8092490625 -4.9012699360
-2.8036403125 4.3288234375 -6.4365677655
-3.3985050000 4.3270093750 -4.0255852160
-2.7987893750 3.7615996875 -5.6471600736
-6.1887158750 4.4575412500 -5.6356807160
-5.6173090313 4.5827384375 -4.8498634480
-5.6014017188 5.1467371875 -4.0665523920
-5.0460231250 4.7009212500 -5.6260651512
-4.4624593750 4.7271512500 -4.8537360960
-3.9258865625 5.9738556250 -5.6347637144
-4.5024762500 5.2958531250 -4.0695572560
-3.9199337500 4.8750309375 -5.6788717504
-3.3547928125 4.8947706250 -4.8439702880
-3.3823396875 5.4522790625 -4.0210390640
-2.8185425000 4.9332018750 -5.7038639296
-6.1597150625 5.5550490625 -5.6955008232
-5.6425097188 5.7358775000 -4.8142584000
-5.6665064063 6.3035984375 -4.0195884400
-5.0764053125 5.7887675000 -5.6494383304
-4.5171903125 5.8710587500 -4.8569870480
-4.4854509375 6.4264709375 -4.0482512160
-3.3721675000 6.0001931250 -4.8336734480
-3.3707834375 6.5944934375 -4.0706193200
-2.8038821875 6.0215990625 -5.6504939184
-6.1608733750 2.8681268750 -3.2630491680
-6.1602162813 2.3253325000 -2.4128410320
-5.0533196875 3.0486596875 -3.2298402400
-5.0260550000 2.4534053125 -2.4841417920
-3.9426700000 2.5520231250 -2.4700759200
-3.3594153125 3.2702709375 -4.0382781760
-2.7990984375 3.1852921875 -3.2052962000
-6.1627008750 3.9659571875 -3.2415877040
-6.1844870938 3.4072796875 -2.4071032960
-5.0628468750 4.1404565625 -3.2380518080
-5.0634112500 3.5966812500 -2.4072069120
-3.9685371875 4.3160175000 -3.2146993520
-3.9049240625 3.7438084375 -2.4435631760
-2.8367503125 4.3353406250 -3.2370674560
-2.7527256250 3.7751984375 -2.4345744880
-6.1714473438 5.0374500000 -3.2711700720
-6.1866666563 4.5033900000 -2.4001869280
-5.0579018750 5.2426003125 -3.2314074320
-5.0652656250 4.7049659375 -2.4121286720
-3.9554221875 5.4333187500 -3.2399298480
-3.8972243750 4.8850015625 -2.4240574640
-2.8003481250 5.4738731250 -3.2603810560
-2.7900146875 4.9001590625 -2.4514638960
-6.1967501563 6.1240465625 -3.2237139440
-6.1635931250 5.5710934375 -2.4031011280
-5.0548918750 6.3406859375 -3.2770761840
-5.0687593750 5.8128475000 -2.4148226880
-3.9220434375 6.5522996875 -3.2338553600
-3.9668575000 5.9790559375 -2.4276710720
-2.8454712500 6.5458093750 -3.1861013360
-2.8334984375 5.9843100000 -2.3836342720
-2.2865250000 3.1770415625 -4.0903711200
-2.2608190625 4.2955387500 -4.0111437360
-2.8317918750 2.6250021875 -2.3838803600
-2.2876268750 4.8583415625 -4.8326372880
-2.2443043750 5.9981909375 -4.8278968560
-2.2970734375 6.5721468750 -4.0423192000
-6.7120266678 3.8873746875 -4.0843743440
-5.0440746875 3.0322793750 -6.4724877673
-2.7937771875 3.2151771875 -6.4700709241
-6.1755189063 6.1688203125 -6.4206646523
1.0815843750 6.6667065625 -4.8601991440
-2.2290528125 3.7600543750 -4.8490086160
0.4901059375 6.6823343750 -5.6511751936
1.6307078125 6.5188671875 -5.6784611720
0.5560706250 6.6797946875 -2.3938922560
1.6668278125 6.5372631250 -2.4752049120
2.1932553125 6.4268203125 -4.8753400320
-2.2306921875 2.5973612500 -4.8542541760
-1.6650271875 2.5694650000 -5.6370834176
-1.0745296875 2.4661978125 -4.8599530560
-1.1600459375 2.9970193750 -4.0172570800
-0.5256078125 2.3748900000 -5.6646815392
0.0314706250 2.3188153125 -4.8330128960
0.0194978125 2.8775868750 -4.0296132880
1.7140875000 2.6267087500 -6.4644944923
1.0891362500 3.2717893750 -4.8862585680
-1.6620843750 3.6760834375 -5.6530467576
-1.1173281250 3.5701556250 -4.8073808880
-1.1070618750 4.1547271875 -4.0650758640
-0.5756625000 3.5051987500 -5.6744719560
0.5756356250 3.9009196875 -6.4223753525
0.0096346875 4.0068878125 -4.0358432000
-0.0221584375 3.4428218750 -4.8386470160
0.5142262500 3.3184578125 -5.6805749384
1.6761131250 3.7707237500 -6.4341997514
1.1107706250 3.7986468750 -4.0230854800
1.6599881250 3.1863134375 -5.6602843352
-2.2178459375 5.4226359375 -4.0438475360
-1.7136440625 4.7817075000 -5.6349048912
-1.1440687500 4.7400646875 -4.8285056000
-1.1271912500 5.3050712500 -4.0464379360
-0.6007906250 4.5848884375 -5.6416787872
0.0012631250 4.5483115625 -4.8910767120
-0.0273184375 5.0778028125 -4.0036315760
0.5708250000 4.4944003125 -5.6778252288
1.1116575000 4.3438331250 -4.8617274800
1.0961909375 4.9073078125 -4.0507898080
1.7057696875 4.3348971875 -5.6410247112
-1.7094515625 5.8660465625 -5.6606987992
-1.1194512500 5.8541812500 -4.8858959120
-1.1607984375 6.3694690625 -3.9755775440
-0.5472421875 5.7714331250 -5.6696913728
-0.0100915625 5.6104250000 -4.8508996080
-0.0116906250 6.1909787500 -4.0641044640
0.5883475000 5.6379450000 -5.6274328824
1.1167503125 5.4892725000 -4.7873441440
1.1151378125 6.1021837500 -4.0637806640
1.6613856250 5.3923612500 -5.6496105920
-1.7313278125 3.1054062500 -3.2470923040
-1.6220675000 2.5686318750 -2.3902138880
-0.5623190625 2.9451371875 -3.2770114240
-0.5004796875 2.3887440625 -2.4389134080
1.1595621875 2.7149931250 -4.0449096000
1.7057562500 2.6148434375 -3.2043636560
-1.6664381250 4.2160156250 -3.2759882160
-1.6665993750 3.6683031250 -2.4325539760
-0.5612037500 4.0479796875 -3.2244651600
-0.6029406250 3.4869506250 -2.4302744240
0.5598868750 3.9032443750 -3.2076793680
0.5262662500 3.3298393750 -2.4438610720
1.6894968750 3.7543971875 -3.2254236080
1.6758578125 3.1853325000 -2.4222830400
-1.6890937500 5.3137115625 -3.1856998240
-1.7077181250 4.7506400000 -2.4059894240
-0.5958859375 5.1813925000 -3.2040916640
-0.5467718750 4.6141821875 -2.4144082240
0.5561781250 5.0637740625 -3.2255142720
0.5454818750 4.4778050000 -2.4424104480
1.6457846875 4.8424584375 -3.1983798320
1.6602300000 4.2833778125 -2.3683509120
-1.7447115625 6.4651709375 -3.2181316320
-1.6565615625 5.9154293750 -2.4265053920
-0.5544581250 6.3393959375 -3.2453049280
-0.5486531250 5.7710703125 -2.4468141280
0.5482768750 6.1368928125 -3.2490610080
0.5380778125 5.5945821875 -2.3813547200
1.6410681250 5.9416862500 -3.2279881040
1.6867421875 5.4160784375 -2.3892295360
2.2292946875 3.0793240625 -4.8736044640
2.2056715625 4.7974159375 -4.0243418240
2.2359462500 5.8861221875 -3.9835559760
0.5927012500 2.7647925000 -3.2388548320
2.2192703125 3.6371012500 -4.0684563360
2.2378543750 5.3599768750 -4.8436464880
-1.6980834375 3.1222703125 -6.4646908705
-0.5859556250 2.9454462500 -6.4701600857
-0.5661756250 5.1758428125 -6.4000985601
0.5163359375 5.0769562500 -6.4339789198
-1.7055143750 6.4610725000 -6.4075813190
-0.5954021875 6.3414250000 -6.4600255213
1.6751321875 5.9432450000 -6.4727203982
6.1322568750 6.5905696875 -2.4351055200
6.6734387500 6.6965109375 -4.9083805840
6.7063606250 2.7290353125 -4.0669668560
6.6938234375 3.3077884375 -4.8436853440
6.6818103125 4.4916321875 -4.8347355120
6.6784106250 5.0474743750 -4.0325274880
2.2503243750 2.5187653125 -4.0576543680
2.2427590625 4.2245887500 -4.8062929200
2.7800306250 6.3965993750 -5.6464943408
3.3285628125 6.2783090625 -4.8421311040
3.9024784375 6.3317231250 -5.6373437528
4.4706831250 6.3649003125 -4.8366524080
4.9892093750 6.4257587500 -5.7254031056
5.5332400000 6.5176981250 -4.8745629120
6.0987571875 6.6407453125 -5.6600201144
2.7640265625 6.3919634375 -2.4027902800
3.9259537500 6.3064875000 -2.4154961920
5.0217281250 6.4146593750 -2.4103801520
6.7182393750 5.6055068750 -4.8618181440
6.6499096875 6.1679603125 -4.0371902080
3.3418121875 2.3804128125 -4.0461270880
4.4659128125 2.4387450000 -4.0292765360
5.5878365625 2.5874443750 -4.0598950640
2.8233396875 3.0436206250 -5.6253242968
3.3940571875 2.9375853125 -4.8408618080