ITEM: TIMESTEP
108000
# source: voids-relax.108000.cfg
ITEM: NUMBER OF ATOMS
2298
ITEM: BOX BOUNDS pp pp pp
-6.7187500000 6.7187500000
-6.7187500000 6.7187500000
-6.4760000000 6.4760000000
ITEM: ATOMS x y z
-6.1423444063 -6.3424623750 -5.6345966336
-5.6052488750 -6.2895280313 -4.7857899040
-5.6134887500 -5.7048328438 -4.0733392400
-5.0837690625 -6.3301240625 -5.6458389696
-4.4865393750 -6.3657535938 -4.8775936800
-3.9134434375 -5.2951543750 -5.6714243504
-4.4587640625 -5.8124699063 -4.0537299120
-3.9133762500 -6.4052316250 -5.6577276104
-3.3618743750 -6.5344372188 -4.8431543120
-3.3648575000 -5.9586658750 -4.0521368160
-2.8004959375 -6.6203340188 -5.6494007696
-6.1521712500 -5.2406787500 -5.6400597872
-5.5983621563 -5.1256537500 -4.8487495760
-5.1091121875 -4.6548575000 -6.4331541364
-5.6622641875 -4.5848346875 -4.0254297920
-5.0219028125 -5.2282087500 -5.6647191000
-4.4865662500 -5.2374806250 -4.8299562240
-4.5056475000 -4.6608103125 -4.0289915920
-3.3879834375 -4.8706771875 -3.9981528800
-2.8189590625 -5.5073996875 -5.6963763784
-6.1903713750 -4.0793428125 -5.6625030128
-5.0292128125 -4.0697215625 -5.6924454464
-5.0129400000 -3.4782162500 -6.4271910356
-5.6315312813 -3.4959537500 -4.0601670560
-4.4753325000 -4.1354040625 -4.8548111120
-3.9073965625 -4.2109228125 -5.6641738208
-3.8959746875 -3.6393587500 -6.4494013842
-4.5196090625 -3.5821553125 -3.9979845040
-3.3700981250 -4.3163803125 -4.8186361760
-3.3541478125 -5.4006280000 -4.8543059840
-3.9243681250 -3.6102396875 -3.2430771840
-2.8124821875 -4.3492484375 -5.6725783736
-6.1958915000 -2.9987259375 -5.6729254872
-5.6622615000 -2.9370209375 -4.8612871120
-5.5818528438 -4.0533950000 -4.8896131360
-5.0250740625 -2.3300759375 -6.4588726638
-5.6359065313 -2.3921706250 -4.0438086800
-5.0803828125 -2.8919918750 -5.6667875344
-4.5387037500 -3.0534031250 -4.8518969120
-3.9061871875 -2.5209421875 -6.4504774364
-4.5003128125 -2.4840696875 -4.0606074240
-3.9421862500 -3.0740028125 -5.6366262120
-3.4064868750 -3.1976546875 -4.8159810160
-3.3742637500 -2.5899303125 -4.0956684880
-2.8124284375 -3.2544281250 -5.5842483240
-6.1388358750 -5.7922854375 -3.2481802720
-6.2033614063 -6.3262218125 -2.4125172320
-5.0314300000 -5.7380879688 -3.2689811840
-5.0551740625 -6.2600045000 -2.3944362400
-3.9187512500 -5.9128345938 -3.2044802240
-3.9521568750 -6.4732213438 -2.3912111920
-2.8402171875 -6.0775071250 -3.1837052160
-2.8130196875 -6.6523968344 -2.4046553680
-6.2259511875 -4.6429115625 -3.2323788320
-6.1414400625 -5.2159940625 -2.4649080720
-5.0724009375 -4.6639546875 -3.2471829680
-5.0691759375 -5.1932175000 -2.3904470240
-3.9370262500 -4.7918662500 -3.2011515600
-3.9429925000 -5.3525996875 -2.4076213760
-2.8354468750 -4.3447200000 -2.4170115760
-6.2016373750 -3.5543934375 -3.2271721280
-6.1351217500 -4.1056534375 -2.3807200720
-5.1038581250 -3.4885362500 -3.2078088880
-5.0256518750 -4.0875531250 -2.4716042560
-3.9202831250 -4.1869906250 -2.4707105680
-3.3606650000 -3.7578775000 -4.0193941600
-6.1768599688 -2.4305346875 -3.2452013120
-6.2343805313 -2.9817006250 -2.4355976960
-5.0419784375 -2.3593831250 -3.2392952000
-5.0470981250 -2.9072300000 -2.4462960480
-3.9243546875 -2.5167631250 -3.2454344480
-3.9395928125 -3.0722290625 -2.4129835040
-2.8505237500 -2.7267375000 -3.2109821280
-2.7636100000 -3.8007028125 -3.2511592320
-2.2784625000 -6.1278950625 -4.0010541280
-2.7947850000 -4.9045531250 -3.2312520080
-2.2855037500 -4.5007562500 -4.8249567520
-5.1108187500 -5.7897860625 -6.4648045502
-2.7622125000 -5.4781758125 -2.4601028800
-2.8162178125 -3.2790321875 -2.3722883200
-2.2532537500 -5.5817520625 -4.8578548320
-2.2910265625 -2.7522284375 -4.0563073600
-6.7103289472 -3.5857700000 -4.1187100960
-6.2422428125 -5.7793760313 -6.4727281305
-6.2432291250 -4.6654731250 -6.4186376643
-2.7864000000 -4.9255021875 -6.4513347293
-2.7911703125 -3.7844837500 -6.4610434190
-2.8325712500 -2.7284709375 -6.4711740848
-6.1673905625 -2.4239771875 -6.4755865333
-2.2270640625 -5.0529434375 -4.0017017280
-2.2247528125 -3.9000328125 -4.0931169440
-1.6290550000 -5.0780581250 -3.2469886880
-1.7016846875 -5.6231906250 -5.6924661696
-2.2257203125 -6.6598567969 -4.8626211680
-1.6727134375 -6.2200131563 -6.4413263303
-0.5430362500 -6.3373305938 -6.4513406872
-1.1327812500 -6.3312528125 -4.0066234880
-0.0017334375 -6.4746067500 -4.0907985360
1.0948068750 -6.5589284063 -4.0805276000
-1.6484050000 -5.0659240625 -6.4656159153
-1.1740075000 -5.7747925000 -4.8275989600
-0.5857271875 -5.7905640938 -5.6131701400
-0.5595643750 -4.7268690625 -5.6220383744
-1.0886659375 -5.1911481250 -4.0892572480
-0.0125775000 -5.9097829375 -4.8574274160
0.0219165625 -5.3278209375 -4.0806830240
0.5882131250 -6.0072007813 -5.6129305280
1.1732146875 -5.9869733125 -4.8545002640
1.1094940625 -5.4498750938 -4.0088253280
1.6268915625 -5.4266927188 -6.4386352933
-1.7099353125 -3.9900237500 -6.4744750833
-1.6978550000 -4.5238821875 -5.6081926864
-1.1157425000 -4.6002475000 -4.8341656240
-1.1486912500 -4.0275009375 -4.0504401040
0.0410515625 -4.7535559375 -4.8514047360
1.1897293750 -4.3962259375 -4.0422803440
-0.0062618750 -4.2371125000 -3.9853563040
0.5734050000 -4.8696962500 -5.6675944440
1.6717325000 -4.2768471875 -6.4340044352
1.0576521875 -3.8170159375 -4.8242184880
1.1661196875 -4.9228684375 -4.8913228000
-2.2206275000 -3.3168050000 -4.8483480640
-1.7350903125 -2.8911990625 -6.4445486584
-1.6551103125 -3.4519862500 -5.6368282632
-1.0718690625 -3.4681650000 -4.8579195920
-0.5598331250 -3.0110615625 -6.4573589635
-1.1467428125 -2.9430678125 -3.9712256720
-0.5317621875 -3.6014246875 -5.7117283840
-0.0183959375 -3.6697006250 -4.8063447280
0.5242103125 -3.7276162500 -5.6885365328
1.1781328125 -3.2360456250 -4.0993339040
1.7147056250 -3.1641146875 -3.2471700160
1.6223496875 -3.7214484375 -5.6201719912
-1.6911631250 -6.2016938125 -3.2277031600
-0.5182709375 -6.3527447500 -3.2628548880
0.5546193750 -6.5631867500 -3.2303453680
1.6371309375 -6.5721347813 -3.2462245200
-1.6780212500 -5.6333413125 -2.4372166960
-0.5489756250 -5.2948184375 -3.2270814640
-0.5852434375 -5.8439270938 -2.3786736560
0.5481559375 -5.4622053438 -3.2043895600
0.5868425000 -6.0333743438 -2.4046424160
1.7178634375 -5.4481120938 -3.2459784320
1.7408818750 -5.9927810000 -2.4490936800
-1.7021818750 -4.0160790625 -3.2031979760
-1.6988090625 -4.5537537500 -2.3622116640
-0.5931446875 -4.1862246875 -3.2307339280
0.6032765625 -4.2725337500 -3.2758586960
0.5902690625 -4.8623325000 -2.4946199600
1.7383690625 -4.2687712500 -3.2085860080
1.6878709375 -4.8649125000 -2.4832092480
-1.6336371875 -3.4336978125 -2.4392501600
0.0336609375 -3.0953281250 -4.0198604320
-0.5385615625 -3.6010887500 -2.4833258160
0.6352981250 -3.1907209375 -3.2597334560
0.5226246875 -3.7437412500 -2.4171281440
2.2353953125 -6.5337734063 -4.0010541280
1.7023968750 -6.0396080000 -5.7352051792
2.2255590625 -5.9577064375 -4.8495007920
-1.6498965625 -2.3001371875 -5.7156230504
-0.5623593750 -2.4457190625 -5.6775610080
-1.1222193750 -2.4167746875 -4.8298526080
-0.0029159375 -2.5602334375 -4.8654835600
0.5906318750 -2.6672900000 -5.6345836816
1.1560953125 -2.6263459375 -4.8239983040
1.7078659375 -2.6382381250 -5.6403421408
-1.7419031250 -2.8749262500 -3.2352541760
-0.5335896875 -3.0244453125 -3.2572207680
0.5469600000 -2.6614715625 -2.4137088160
1.6345643750 -3.7080646875 -2.4050568800
-1.6655512500 -2.2876537500 -2.4725368000
-0.5963428125 -2.4839218750 -2.4279948720
1.6895909375 -2.6249081250 -2.3682343440
1.7445503125 -4.8598868750 -5.6734863088
2.2322509375 -3.7653621875 -4.9324713040
-0.5101143750 -4.7431553125 -2.4113256480
-0.6049831250 -4.1906321875 -6.4580809080
0.5191981250 -5.4492489063 -6.4339562538
1.7767062500 -3.1940668750 -6.4722329497
0.5741440625 -4.3187453125 -6.4679930866
1.6961215625 -6.6257577969 -6.4758270299
6.6959062500 -4.1525771875 -4.8622714640
6.7127837500 -6.3559831875 -4.8309017200
2.2957296875 -4.8702606250 -4.8704182720
2.2507543750 -4.2731653125 -4.0702307600
2.2999625000 -3.2325787500 -4.0647002560
6.6879512500 -5.7846798125 -4.0083331520
6.6871987500 -5.2844581250 -4.9176671680
6.0441740625 -5.2977343750 -5.6299792456
6.6534303125 -4.7263450000 -4.0927413360
6.6378159375 -2.9851406250 -4.8792126800
6.6478806250 -2.4762087500 -3.9665888560
3.3465825000 -6.2178833125 -4.0388610160
4.4677403125 -6.1651344063 -4.0827164880
5.0153587500 -6.5482469375 -5.6712922400
5.6107609375 -6.5352690000 -4.9052202960
5.5983581250 -6.0131509063 -4.0289138800
6.1764662500 -6.4441466250 -5.6786968984
3.3476171875 -5.7071790313 -4.7756743920
2.9397621875 -5.2827784375 -3.4146134720
3.8677021875 -5.7372669375 -5.6523136744
4.4655768750 -5.5922198750 -4.8204624080
5.0453646875 -4.8105846875 -6.3275972792
4.4016681250 -4.9920178125 -4.0486138720
4.9686096875 -5.4172999063 -5.6664598488
5.5414368750 -5.4337648750 -4.7868131120
5.5700990625 -4.8078165625 -4.0873144480
2.9037631250 -4.7620081250 -5.6701537592
3.4053446875 -4.8038928125 -4.6422169840
3.3440293750 -4.1259440625 -4.1208989840
3.8947653125 -4.5812871875 -5.6021609400
4.5779681250 -4.4415103125 -5.0695423200
4.4657246875 -3.9849175000 -4.0181248640
5.0521103125 -3.9145453125 -6.3519443193
5.4612284375 -4.2611521875 -4.9439985840
5.6298018750 -3.7136009375 -4.0643764560
2.8192681250 -2.5014712500 -5.5997764768
2.8902853125 -3.6866453125 -5.5813716848
3.4261593750 -3.5423265625 -4.8402012560
3.8398059375 -2.8630340625 -6.3560703084
3.3643737500 -2.9788653125 -4.0031394000
4.4585625000 -3.3884806250 -4.7827202800
4.5718809375 -2.7341281250 -4.1759449840
5.0575121875 -3.3404146875 -5.6695864616
5.5569840625 -3.0901546875 -4.6995813920
6.1076528125 -3.1825509375 -5.6790206984
6.0663593750 -4.2227075000 -5.5938574128
2.8080209375 -6.4495901563 -3.2094796960
3.9499531250 -6.2617554063 -3.2464058480
5.0158156250 -6.0393271563 -3.2375466800
5.0754915625 -6.6074669406 -2.4182549680
6.1328212500 -5.8719066563 -3.2001283520
6.1596962500 -6.4961672188 -2.5041267280
2.2753718750 -5.3972578750 -4.0063255920
2.8100768750 -5.8313294375 -2.4835589520
3.8664121875 -5.1498009375 -3.3355026560
3.8887318750 -5.6789078750 -2.4362712000
5.0466143750 -5.0052806250 -3.2756644160
4.9758390625 -5.5011472188 -2.3795543920
6.1214665625 -4.7308600000 -3.2287522720
6.1782668750 -5.2998978125 -2.4372426000
2.8418565625 -4.2667959375 -3.2183388640
2.7899475000 -4.8243715625 -2.3828312480
3.8804678125 -3.9648687500 -3.2250350480
3.9773790625 -4.5870384375 -2.4913819600
5.0365496875 -3.8112646875 -3.2903519840
5.0021496875 -4.3914153125 -2.5308985120
6.1959640625 -3.6675506250 -3.2243356400
6.0927237500 -4.1823278125 -2.3810438720
2.8049437500 -3.0969003125 -3.1933674080
2.7912509375 -3.6826678125 -2.4519042640
3.9970784375 -2.9275475000 -3.2962580960
3.9465534375 -3.4463021875 -2.3955760160
5.0473668750 -2.7322334375 -3.3286769520
5.0669453125 -3.2749337500 -2.4354034160
5.9504609375 -2.5886403125 -3.4623934000
6.1360462500 -3.0554590625 -2.4887138480
2.2925987500 -2.6339246875 -4.8057100800
3.4612446875 -2.4419834375 -4.9265522400
3.9871346875 -3.4910087500 -5.7383486296
4.1971762500 -2.3534168750 -5.3736423280
2.8277740625 -2.4968621875 -2.4803727600
3.9134568750 -2.3603506250 -2.5245649840
2.7880528125 -5.8860966563 -5.6736831792
2.8100500000 -3.0985800000 -6.3785080942
6.1798793750 -2.6030721875 -6.4311685948
5.0372484375 -6.0038561875 -6.4560159706
2.7310240625 -4.1875953125 -6.4595909817
2.8284325000 -6.4379425313 -6.4663979830
6.1896618750 -5.8598021563 -6.4307603478
6.1738190625 -4.7497531250 -6.4691719905
-2.7428625000 -2.1581700000 -2.4485756000
-6.1721770000 -1.8635259375 -5.6760274912
-5.6407830000 -1.8251887500 -4.8354867280
-5.5819065938 -1.2655168750 -4.0348847520
-5.0595412500 -1.7862065625 -5.6358892432
-4.5100415625 -1.9111350000 -4.8250215120
-4.4512928125 -1.3203687500 -4.0839339760
-3.9235753125 -1.9962212500 -5.5970565568
-3.3208765625 -2.0129643750 -4.8577512160
-2.8409696875 -1.6217853125 -6.4496441047
-3.3759971875 -1.4594065625 -4.0262069120
-2.7582350000 -2.1814975000 -5.6437407456
-6.6818867719 -0.7916300000 -4.8349427440
-6.1211413750 -0.7437925000 -5.6513176656
-5.5683911563 -0.6852184375 -4.8109815440
-5.6258216875 -0.0903134375 -4.0699976240
-5.0195781250 -0.7113812500 -5.6237247248
-4.4285968750 -0.7362809375 -4.8391003360
-3.9317050000 -0.3179043750 -6.4475743751
-4.4871978125 -0.2061446875 -3.9813929920
-3.8964584375 -0.8979878125 -5.6633073320
-3.3189818750 -0.9090334375 -4.8560286000
-3.3017281250 -0.3759678125 -3.9854340160
-2.7827181250 -1.0241659375 -5.7209268944
-6.7133308981 0.3349162500 -4.9236250880
-6.1763305313 0.9237340625 -6.4129962912
-6.6739053000 0.8621096875 -4.0191610240
-6.1067860938 0.3504231250 -5.6421903912
-5.5576586250 0.4887218750 -4.8438925760
-5.6070374063 1.0173934375 -3.9948889760
-5.0002415625 0.3772981250 -5.6679778232
-4.4570171875 0.3413259375 -4.8213301920
-4.4557406250 0.9025028125 -4.0139284160
-3.9268809375 0.2795268750 -5.7185424312
-3.4056268750 0.1681300000 -4.8222497840
-2.7333890625 0.6680587500 -6.4675656187
-3.3112418750 0.7577003125 -4.0703732320
-2.8570006250 0.1083734375 -5.6527216624
-6.6932413250 1.9647506250 -4.0423192000
-6.1828154688 1.5507278125 -5.6932808504
-5.6354214375 1.5492093750 -4.8934987360
-4.9966806250 2.1015712500 -6.4590010181
-5.5536300625 2.0684075000 -4.0008987040
-5.0392909375 1.5245515625 -5.6896879656
-4.5370912500 1.4525534375 -4.8189340720
-4.4459446875 2.0418281250 -4.0821336480
-3.9651106250 1.3763896875 -5.6275041184
-3.3832131250 1.3263215625 -4.8582952000
-2.8376506250 1.7541178125 -6.4266941969
-2.8091228125 1.1963271875 -5.6131960440
-6.1943394688 -1.2677878125 -3.2862202960
-6.1302882813 -1.8435443750 -2.4758136560
-5.0262296875 -1.2880515625 -3.2558996640
-5.0548515625 -1.7946050000 -2.3899807520
-3.9485959375 -1.4537359375 -3.2059178960
-3.8979768750 -1.9954821875 -2.3725085040
-2.8132078125 -1.5919540625 -3.2427274800
-6.1893716250 -0.2005009375 -3.2195822560
-6.0782488750 -0.7778296875 -2.3950708880
-5.0939412500 -0.1872650000 -3.2386476000
-4.9869653125 -0.7176700000 -2.4101599680
-3.8916746875 -0.2839478125 -3.2583864480
-3.9025993750 -0.8453128125 -2.4714099760
-2.6992846875 -0.4480196875 -3.2486206400
-2.8308915625 -1.0074900000 -2.4679258880
-6.1519508750 0.9350887500 -3.1678131120
-6.1475111250 0.3431265625 -2.4004848240
-5.0124159375 0.9563334375 -3.2231699600
-4.9986021875 0.3927781250 -2.4485756000
-3.8617762500 0.8577156250 -3.2400982240
-3.9349837500 0.2813275000 -2.4558546240
-6.1483335000 2.1403653125 -3.2383367520
-6.1821288125 1.5504456250 -2.4766037280
-4.9906875000 2.1069462500 -3.2146086880
-5.0796975000 1.5421143750 -2.4328130160
-2.8304346875 1.7658353125 -3.2116685840
-3.9398481250 1.3855003125 -2.3628981200
-2.7827987500 0.6486953125 -3.2016307840
-2.7629246875 1.2064187500 -2.3935943600
-2.2754659375 0.0268078125 -4.8641495040
-2.2718646875 1.6874946875 -4.0166871920
-3.3624253125 1.8996190625 -4.0746344400
-3.9165743750 1.9253921875 -3.2120960000
-2.8418431250 0.0881768750 -2.3874033040
-2.2697818750 -1.1164681250 -4.8145303920
-3.9423340625 -1.4481862500 -6.4593502040
-2.7468131250 -0.4365978125 -6.4749242211
-5.0782059375 0.9452071875 -6.4660071175
-6.1344350938 2.1044468750 -6.4672795220
-3.8912178125 1.9407781250 -6.4726259133
-2.1790384375 -2.1892778125 -4.8494101280
-2.1508600000 -0.5333881250 -4.0602188640
-2.2377468750 0.6045262500 -4.0826517280
1.7078659375 -2.1194834375 -3.2795759200
-1.7200671875 0.4913153125 -3.2028353200
-1.6459325000 -1.7130931250 -6.4738710798
-2.2190418750 -1.6657662500 -3.9774037760
-1.0401431250 -1.8470112500 -4.0551546320
-0.4991225000 -1.9009762500 -3.2000117840
0.0362275000 -1.9915450000 -4.0758130720
1.1117112500 -2.0646853125 -4.0369829760
-1.7183337500 -1.1592531250 -5.6608063008
-1.1571300000 -1.2722356250 -4.8424549040
-0.5590537500 -0.8235171875 -6.4525564914
-0.5521334375 -0.8068546875 -3.2072001440
-0.5946631250 -1.3584371875 -5.6054105968
0.0380146875 -1.4325181250 -4.9023579040
0.5886834375 -1.5228584375 -5.6665673504
0.0011690625 -0.9011187500 -4.0585739600
1.1809681250 -1.5207756250 -4.8850410800
1.1082040625 -0.9928431250 -4.0186299920
1.7444562500 -1.5544500000 -5.6805321968
-1.6898731250 0.4715890625 -6.4183652838
-1.6990778125 -0.0845756250 -5.5992014080
-1.0769081250 -0.6961834375 -4.0886355520
-1.0795418750 -0.1107518750 -4.8836422640
-0.5301765625 -0.2455434375 -5.6750677480
0.0284875000 -0.3205650000 -4.8452913920
-0.0090165625 0.2226996875 -4.0118690480
0.5576696875 -0.3380740625 -5.6824283696
1.1298115625 -0.4494171875 -4.8709363520
1.6961618750 -0.3710631250 -5.6449336248
1.1401584375 0.0960512500 -4.0539371440
-2.1914546875 1.1587962500 -4.8972548160
-1.7084706250 1.6380043750 -6.4473759505
-1.6205625000 1.0715196875 -5.6752827512
-1.1643996875 0.4153934375 -4.0228134880
-1.0660775000 0.9603109375 -4.8567539120
-0.5056128125 0.9153356250 -5.6988035832
0.0211103125 0.7867118750 -4.8303836400
-0.0058856250 1.3388856250 -4.0203267040
0.5793309375 0.7560609375 -5.6655493232
1.1109453125 0.6927568750 -4.8100878560
1.6648256250 0.7372618750 -5.6419119232
1.1140896875 1.8316656250 -4.8363415600
-1.6049346875 -1.7239775000 -3.2671549520
-0.5561915625 -1.3618906250 -2.3681177760
0.5711206250 -2.0924740625 -3.1915152720
1.7471303125 -1.5687878125 -2.4544687600
-1.7440531250 -1.1940696875 -2.3994745680
-0.5219796875 -0.2341887500 -2.4185010560
-0.5903765625 0.3238571875 -3.2428310960
0.5363175000 -0.9418075000 -3.2181057280
1.6613050000 -0.9708190625 -3.1949086960
-1.6291087500 1.0633362500 -2.4387709360
-1.6101081250 -0.6411568750 -3.1997656960
-0.5662293750 1.4789715625 -3.2355391200
-1.6646509375 -0.0719846875 -2.3943326240
-0.5229875000 0.8886218750 -2.4625119520
0.5744262500 0.1835159375 -3.2461856640
1.6807759375 0.1919143750 -3.2077052720
1.7346737500 -0.3968631250 -2.4413613360
-1.6983118750 1.6423581250 -3.2232606240
0.5949050000 1.3051440625 -3.2610545600
1.1523865625 1.2722356250 -4.0395733760
1.6624740625 0.7330156250 -2.3665764880
1.7379256250 1.2476181250 -3.2502655440
-1.1241543750 2.0680178125 -4.8303965920
-0.5602765625 2.0291028125 -5.6431242304
-0.0049987500 1.9069425000 -4.8233895600
0.5517975000 1.8520368750 -5.6484099416
1.6637371875 1.8233881250 -5.6754019096
-1.6464028125 2.2024331250 -2.4298729120
-0.5165778125 2.0261465625 -2.4238502320
0.5507493750 1.8459362500 -2.4262074960
0.6333631250 -1.5204934375 -2.4251324800
0.5829590625 -0.3764246875 -2.4280596320
0.5530875000 0.7423143750 -2.4460629120
-1.1425368750 1.5081443750 -4.0239144080
1.6327368750 1.8097893750 -2.4340564080
2.1971925000 -0.8872243750 -4.0001733920
2.2342665625 0.1826290625 -4.0508804720
2.2201437500 1.8998743750 -4.8590982240
-2.2098775000 2.2310415625 -4.8500836320
-1.6415250000 2.2350190625 -5.6998306768
0.5703815625 -2.0956721875 -6.4366180193
1.6488350000 -0.9427884375 -6.4207800546
-0.5900406250 0.3403450000 -6.4487103950
1.7183203125 0.1819168750 -6.4732924233
0.5545253125 -0.9428018750 -6.4268220331
5.5290743750 -2.1748996875 -4.7559744000
5.0764859375 -2.2373168750 -5.6227779336
5.0521103125 -2.2168246875 -2.3725473600
6.7026653125 -1.9375531250 -4.8684236640
6.7012275000 -1.3599421875 -4.0539500960
6.7093034375 -0.2002859375 -4.0790122160
6.7110503125 1.4071884375 -4.8526740320
2.2677528125 -1.4601859375 -4.7967861520
2.2401925000 0.7437790625 -4.8555493760
2.2847915625 -0.3716946875 -4.8810130080
2.2830984375 -2.0510328125 -4.0546624560
3.4548618750 -1.9337234375 -4.0312193360
3.9691687500 -1.8476293750 -6.3592871966
4.5377228125 -1.7905468750 -4.1315325760
5.0112871875 -1.6513478125 -6.4445775414
5.6252465625 -1.5911746875 -4.0719404240
6.1208350000 -1.9974171875 -5.6583182216
2.8212703125 -0.8643806250 -3.2787210880
2.8033984375 -1.4175487500 -5.6729578672
3.3293556250 -1.3336450000 -4.7914758320
3.3785368750 -0.7510218750 -4.0640138000
3.8565490625 -1.2307675000 -5.6656995664
4.4580653125 -1.2789946875 -4.8913746080
4.5418884375 -0.6954846875 -4.0637029520
5.0457946875 -1.0767200000 -5.6236172232
5.6217796875 -1.0071271875 -4.9089634240
6.1375646875 -0.3391759375 -6.4050007626
5.6344512500 -0.5165643750 -4.0267120400
6.2240484375 -0.9139112500 -5.6577742376
2.7975262500 0.2686962500 -6.4116424186
2.8583040625 -0.3231046875 -5.6683132800
3.3886553125 -0.1569903125 -4.8149448560
3.3189953125 0.4119534375 -4.0148868640
3.9493753125 -0.1816884375 -5.6566318712
4.4720403125 -0.0946134375 -4.7749102240
4.4853971875 0.5365056250 -4.0694018320
6.1218428125 0.2622462500 -5.6510340168
5.5783765625 0.0615168750 -4.8592536480
5.6513825000 0.6279612500 -4.0771471280
6.2183778125 0.8390643750 -6.4325560130
2.8060590625 0.8494246875 -5.6290285688
3.4152481250 0.9279937500 -4.9062435040
3.9303881250 1.5482418750 -6.4206238535
3.3447953125 1.4806781250 -4.0687024240
3.9868390625 0.9618428125 -5.6613476944
4.5143684375 1.1279840625 -4.8316011280
5.0856234375 1.1365975000 -5.6465901856
4.4249553125 1.6848609375 -4.0140708880
4.9812946875 0.0892518750 -5.6365161200
5.6059906250 1.2524556250 -4.7705972080
5.5728671875 1.8618596875 -4.0627704080
6.1287228125 1.4187850000 -5.6411283272
2.8480781250 -1.9275153125 -3.2786304240
4.0087825000 -1.7254690625 -3.2180798240
5.0721321875 -1.6446693750 -3.1903884480
6.1437728125 -1.4485625000 -3.1660645920
6.2488675000 -2.0570393750 -2.4706846640
2.8354334375 -0.3115618750 -2.4325928320
2.8117296875 -1.3959009375 -2.4146543120
3.9436912500 -0.6486953125 -3.2918673680
3.8839346875 -1.1853756250 -2.4188766640
5.0572837500 -0.4913018750 -3.2330911920
5.0077396875 -1.0578671875 -2.4451692240
6.1811693750 -0.3181596875 -3.2068892960
6.1666165625 -0.8876140625 -2.4033601680
2.7974187500 1.4036946875 -3.1807262560
2.7814684375 0.2621387500 -3.2063194080
3.9320812500 0.4099915625 -3.2768560000
3.9185093750 -0.1217706250 -2.4074011920
5.0630484375 0.6058028125 -3.2987448800
5.0146465625 0.0792140625 -2.4368281360
6.1579090625 0.8378012500 -3.2414063760
6.1296634375 0.2600828125 -2.4423586400
2.2819025000 1.3255018750 -4.0814601440
3.8710078125 1.5599056250 -3.2021359120
3.9767743750 0.9785993750 -2.4587688240
5.0245365625 1.6818106250 -3.2719212880
5.0396268750 1.1627603125 -2.4147838320
6.1591318750 1.9133387500 -3.2888754560
6.1499675000 1.3754625000 -2.4110277520
2.7902028125 1.9513668750 -5.6705785848
3.3530056250 2.0507506250 -4.8638645600
3.9114412500 2.1441278125 -5.6580734288
3.9833050000 2.1341034375 -2.3973504400
2.8532246875 0.8259896875 -2.4049014560
2.7755425000 1.9726653125 -2.3722106080
5.0913746875 -0.5146428125 -6.4049576324
4.5043440625 2.2118796875 -4.9007259520
2.9285284375 -1.9771534375 -6.4690427555
3.8918359375 0.3899965625 -6.4657134309
2.8555762500 1.3893568750 -6.4627919390
5.0025662500 1.7006231250 -6.4415241074
-3.9474671875 3.0556740625 -3.2196729200
-6.1814905313 2.6844900000 -5.6843025240
-5.6320445938 2.6239137500 -4.8203976480
-5.5935891563 3.2344868750 -4.0921066880
-5.0943578125 2.6505468750 -5.6272373072
-4.4798206250 2.6094281250 -4.8795364800
-3.9561478125 3.0430562500 -6.4144154418
-4.4830859375 3.1560253125 -4.0488729120
-3.9112800000 2.4711562500 -5.6231017336
-3.3083125000 2.4587534375 -4.8837976880
-2.8365621875 2.9214334375 -6.4590050332
-2.7414246875 2.3434328125 -5.6882995112
-6.1929500313 4.3144050000 -6.4432136958
-6.1353609375 3.7301021875 -5.6486456680
-5.5894168125 3.8314612500 -4.8139864080
-5.6417572188 4.3981743750 -4.0312840960
-5.0458887500 3.7384737500 -5.6409845600
-4.4568156250 3.7178203125 -4.8598753440
-4.4887431250 4.2641890625 -4.0176456400
-3.9133493750 3.6545565625 -5.7003254432
-3.3650859375 3.5271421875 -4.8596681120
-3.3636750000 4.0837637500 -4.0392754800
-2.7974187500 3.4929571875 -5.6787266880
-6.1436357500 5.4676515625 -6.4456811813
-6.1817243438 4.8950931250 -5.6705228912
-5.6060080938 4.9352175000 -4.8928511360
-5.6071502813 5.4555846875 -3.9961323680
-5.0260550000 4.8453475000 -5.6869835880
-4.5084559375 4.8223156250 -4.8227937680
-3.9125296875 5.8660734375 -5.6362363568
-4.5130515625 5.4099509375 -4.0610736960
-3.9514715625 4.7797859375 -5.6706200312
-3.3981690625 4.6530837500 -4.8478040800
-3.3873250000 5.2081868750 -4.0415420800
-2.8321412500 4.5940931250 -5.6345707296
-6.1968952813 6.0695440625 -5.6954956424
-5.6344297500 5.9938371875 -4.8729568640
-5.5800952188 6.5357984375 -4.0665394400
-5.0610328125 5.9852775000 -5.6511376328
-4.4803581250 5.9662365625 -4.8700685680
-5.0052940625 6.5396684375 -6.4562478114
-4.4875068750 6.5088965625 -4.0348847520
-3.9437315625 6.4548912500 -6.4174766470
-3.3492431250 5.7735965625 -4.8377533280
-3.3537581250 6.3470553125 -4.0478108480
-2.7821537500 5.7197525000 -5.6501183104
-6.1516471875 3.2032178125 -3.2778792080
-6.1846040000 2.6734040625 -2.4016893600
-5.0644996875 3.2051125000 -3.2375207760
-5.0607506250 2.6651265625 -2.4052123040
-3.9004090625 2.5020893750 -2.4111702240
-3.3769109375 2.9859065625 -4.0111825920
-2.8078865625 2.9072568750 -3.2249055280
-6.1898768750 4.2924212500 -3.2125752240
-6.1534276563 3.7449371875 -2.4058210480
-5.0549590625 4.3026337500 -3.2518715920
-5.0312284375 3.7576087500 -2.4070644400
-3.9189931250 4.2089071875 -3.2196340640
-3.9243278125 3.6265259375 -2.4469695520
-2.8131137500 4.0401859375 -3.2146475440
-2.7805412500 3.4715243750 -2.4309090720
-6.1888986250 5.4834137500 -3.2078866000
-6.1409576563 4.8856465625 -2.4603360160
-5.0360121875 5.4480865625 -3.1974861440
-5.0472996875 4.8496609375 -2.4325928320
-3.9484481250 5.3222578125 -3.2378316240
-3.8970900000 4.7683506250 -2.4217649600
-2.8060725000 5.1595700000 -3.2675694160
-2.7751125000 4.6217878125 -2.4335512800
-6.1467062188 6.5705881250 -3.2642537040
-6.1944751875 6.0257109375 -2.3980368960
-5.0546365625 6.6252653125 -3.2098553040
-5.0456200000 6.0359368750 -2.4586393040
-3.9223928125 6.4284596875 -3.2502137360
-3.9167490625 5.8898846875 -2.4198480640
-2.7884290625 6.2394075000 -3.2411343840
-2.8547431250 5.6965190625 -2.3977908080
-2.2477578125 2.7902296875 -4.0313747600
-2.2632109375 3.9233065625 -4.0467617360
-2.2648503125 4.4939837500 -4.8398515520
-2.7808503125 2.3340265625 -2.4357401680
-5.0455393750 5.4275809375 -6.4637086945
-2.2521518750 3.3546181250 -4.8327020480
-2.2420065625 5.6284715625 -4.8264203280
-6.7126720709 2.5689678125 -4.7848055520
-6.7112370938 3.7135875000 -4.8809482480
-6.7117126469 5.3382081250 -4.0654903280
-2.8189456250 5.1492500000 -6.4410266210
-0.5615934375 6.5247528125 -2.4480057120
-2.2353684375 5.0594068750 -4.0442231440
-1.6902896875 6.6313928125 -5.6905829488
-1.1201231250 6.5787850000 -4.8821009760
-0.5589462500 6.5181281250 -5.7004718008
-0.0400034375 6.3553865625 -4.8277802880
1.0821218750 6.2816012500 -4.8232211840
0.5281071875 6.3793590625 -5.6525856664
1.6323606250 6.2760650000 -5.6450294696
-1.6533096875 6.6605118750 -2.4603489680
0.5357262500 6.3097796875 -2.3702289520
1.6734659375 6.3113384375 -2.4444180080
-1.1273659375 2.6382918750 -4.0438345840
0.0038028125 2.4868512500 -4.0707747440
1.7020071875 2.3993193750 -6.4587063601
1.1367318750 2.9525546875 -4.8567280080
-1.6592356250 3.8670571875 -6.4582924142
-1.6980028125 3.3187265625 -5.6358167120
-1.1319615625 3.2151637500 -4.8291920560
-1.1035143750 3.7810975000 -4.0441454320
-0.5691721875 3.1175806250 -5.6369538976
0.0219300000 3.6470987500 -4.0607239920
-0.0045821875 3.0782490625 -4.8351629280
0.5552509375 2.9337018750 -5.6410687480
1.1095746875 3.5174940625 -4.0577968400
1.6851296875 2.9697143750 -5.6605576224
-1.7366087500 4.9716868750 -6.4758802104
-1.6928831250 4.4293359375 -5.6298238216
-1.1334800000 4.3502428125 -4.8280393280
-1.1114425000 4.9371928125 -4.0728600160
-0.5769793750 4.2305146875 -5.6466394032
0.0070546875 4.2131534375 -4.8816217520
-0.0281112500 4.7362618750 -4.0104961360
0.5558287500 4.0659993750 -5.6822055952
1.1238721875 4.0771928125 -4.8691619280
1.0871340625 4.6050715625 -4.0019478160
1.6954900000 4.0805118750 -5.6495238136
-2.2314446875 6.2207965625 -4.0658529840
-1.6796337500 5.5187946875 -5.6502245168
-1.1085131250 5.4969990625 -4.8653022320
-0.5706503125 5.9277515625 -6.4509676696
-1.1520506250 6.0410431250 -4.0126720720
-0.5634478125 5.3450746875 -5.6950190088
0.0033728125 5.2833293750 -4.8702239920
-0.0271034375 5.8138015625 -3.9988134320
0.5503059375 5.2641540625 -5.7062380312
1.0745700000 5.1527437500 -4.8477134160
1.7205509375 5.7290243750 -6.4727658208
1.1389490625 5.7129262500 -4.0408944800
1.6602031250 5.1697959375 -5.6361573496
-1.6837590625 2.7703421875 -3.2243356400
-0.5522678125 2.5824456250 -3.2561975600
1.1397956250 2.4067100000 -4.0386667360
1.6884756250 2.3731968750 -3.2139481360
-1.6822271875 3.8736415625 -3.2775942640
-1.6651615625 3.3399040625 -2.4283704800
-0.5308618750 3.6613290625 -3.2435434560
-0.5889790625 3.1188303125 -2.4038523440
0.5518109375 3.4857546875 -3.1979006080
0.5488143750 2.9332718750 -2.3759148800
1.6327368750 3.5497843750 -3.2168882400
1.7130931250 2.9694053125 -2.4633797360
-1.6664515625 4.9652100000 -3.2436341200
-1.7164390625 4.4077150000 -2.4038782480
-0.6014221875 4.7777031250 -3.1888860160
-0.6117556250 4.2041503125 -2.4041243360
0.5273681250 4.6450615625 -3.1985223040
0.5556003125 4.0795443750 -2.4343931600
1.6934475000 4.6366631250 -3.2543972320
1.6873065625 4.1158928125 -2.3945139520
-1.7120853125 6.0595196875 -3.1852724080
-1.7222440625 5.4949700000 -2.3838415040
-0.5908200000 5.9412831250 -3.2122773280
-0.5275025000 5.3644381250 -2.4408691600
0.5696021875 5.8126862500 -3.2667793440
0.5784171875 5.2448040625 -2.4612815120
1.7060518750 5.7370465625 -3.2298143360
1.6445350000 5.1906375000 -2.4053159200
2.2172009375 3.5011271875 -4.0198604320
2.2104284375 5.2779275000 -4.8194780560
0.5636762500 2.4187231250 -3.2559126160
2.2092593750 6.4162718750 -4.8844970960
2.2202243750 4.6635381250 -4.1107575680
-0.5784440625 3.6666503125 -6.4617872523
0.5345840625 3.5016243750 -6.4568930801
1.6583890625 3.5207325000 -6.4720747151
0.5534906250 4.6546156250 -6.4272177167
6.6934740625 4.2554412500 -4.0393531920
6.6995478125 4.8008693750 -4.8975397600
6.7173390625 5.9357065625 -4.7911261280
2.2623106250 4.0705815625 -4.8153722720
2.2500287500 5.8440225000 -4.0557374720
2.8099693750 6.4329343750 -5.6331045632