ITEM: TIMESTEP
189000
# source: voids-relax.189000.cfg
ITEM: NUMBER OF ATOMS
2298
ITEM: BOX BOUNDS pp pp pp
-6.7187500000 6.7187500000
-6.7187500000 6.7187500000
-6.4760000000 6.4760000000
ITEM: ATOMS x y z
-6.6361428344 -5.2076359375 -4.0412959920
-5.5116015938 -6.6921850031 -4.8303577360
-4.9868846875 -6.6091894938 -5.7070812064
-5.6388950313 -6.1233840938 -4.0797375280
-3.8766246875 -5.3105671875 -5.6935062152
-4.4453937500 -6.5021831875 -4.8142065920
-3.9170043750 -6.4338736563 -5.6916903448
-4.5023284375 -5.9556115313 -4.0135139520
-2.7463562500 -5.7500473438 -6.4707229796
-3.4062181250 -4.6852665625 -4.0183450480
-3.3708909375 -6.3234066563 -4.8561322160
-6.1341676875 -5.6331706563 -5.6498152336
-4.9597946875 -5.5265535000 -5.6403278936
-6.1254131563 -3.3976181250 -5.7130909344
-5.6456769375 -4.4559690625 -4.8852353600
-5.0527956250 -4.9485743750 -6.4063710842
-4.4211390625 -5.3756624688 -4.8287387360
-4.4833681250 -4.8130840625 -4.0356230160
-3.8694490625 -3.6273993750 -3.1711029200
-3.3355906250 -5.8061260625 -4.0002381520
-2.7928096875 -5.1685328125 -5.6905440928
-6.2032243438 -4.4945884375 -5.6802368912
-4.4579846875 -4.2683546875 -4.8982003120
-4.9900559375 -3.8092490625 -6.4151193830
-5.5165130000 -3.9340700000 -4.0265695680
-3.8467262500 -4.1959131250 -5.6199971392
-3.3394068750 -5.2447100000 -4.8284537920
-4.4132109375 -3.7283956250 -4.0350401760
-3.2823109375 -4.1292228125 -4.8197630000
-3.9374159375 -4.7183631250 -3.1684995680
-2.7655046875 -4.0581384375 -5.6873073880
-3.8680918750 -4.1842896875 -2.3556450000
-5.6030773750 -3.3538118750 -4.7902972000
-5.6363647500 -2.7511265625 -4.0728600160
-6.1177940938 -5.0668512500 -6.4651997028
-5.0672275000 -2.6912759375 -3.2934475120
-5.0959434375 -3.2096409375 -5.6792616056
-4.5205228125 -3.1792587500 -4.8694857280
-3.8741656250 -2.5137934375 -6.4621666164
-4.4505671875 -2.6374184375 -4.0139672720
-3.9396062500 -3.0626884375 -5.6324673248
-3.3575609375 -2.9703459375 -4.8830464720
-3.8982187500 -2.4849700000 -3.2292833040
-2.7720487500 -2.9877609375 -5.6501778896
-6.6835557094 -6.2838896563 -4.0631201120
-6.1413231563 -6.2385999063 -3.1679944400
-5.0909446875 -6.0361559063 -3.2435305040
-4.9675078125 -6.6008435969 -2.4510753360
-3.9268271875 -5.8470607188 -3.2616762560
-3.9338281250 -6.4041284063 -2.4461276720
-2.8179109375 -4.5943484375 -3.2741231280
-2.7621318750 -5.7466705000 -3.2479859920
-6.0963599375 -5.0648221875 -3.2406163040
-6.1757271875 -5.6209653750 -2.4537564000
-5.5647079375 -5.5567153125 -4.8944571840
-4.9722378125 -5.5151396875 -2.3588830000
-5.5213464688 -5.0117037500 -4.0582113040
-2.7356868750 -4.0596837500 -2.3622764240
-6.1338492188 -3.9499665625 -3.3122408640
-6.1786592500 -4.4806134375 -2.4592350960
-4.9808781250 -3.7790550000 -3.2110080320
-5.0067184375 -4.9493000000 -3.1395648000
-3.3696009375 -3.5267121875 -4.0846333840
-6.1791913750 -2.8853403125 -3.2535294480
-6.1478282500 -3.4267640625 -2.4112479360
-5.0527956250 -3.2376178125 -2.4079969840
-3.9599506250 -3.0601756250 -2.4187989520
-2.7885634375 -2.4104725000 -3.2060344640
-2.8191875000 -3.5220762500 -3.2443464800
-2.7776656250 -5.1835290625 -2.4789739440
-6.0990245938 -2.3185062500 -5.6274924616
-2.8073759375 -2.4110906250 -6.4393415658
-6.1199817188 -2.3366737500 -2.4174001360
-3.3302021875 -2.4248909375 -4.0458939520
-2.2498943750 -2.3461740625 -4.0541702800
-2.7995150000 -6.2975085625 -5.6529275992
-2.7924871875 -6.2898196250 -2.4135922480
-3.8530015625 -5.3173396875 -2.4175167040
-5.0644190625 -4.3446796875 -2.4308961200
-2.8086525000 -2.9372896875 -2.4118437280
-5.0529031250 -4.3719578125 -5.6268461568
-2.2681290625 -5.1536440625 -4.8380123680
-6.6780101875 -3.4778937500 -4.8585024320
-6.1942104688 -6.2018201250 -6.4371907567
-3.9514178125 -3.6335671875 -6.4303493808
-3.9638071875 -4.7350525000 -6.4687910334
-2.2126725000 -2.9285284375 -4.8513399760
-1.6286653125 -4.6536481250 -3.2352800800
-1.0642768750 -6.4152976563 -4.8339583920
-2.2107106250 -4.6310865625 -3.9950573520
-2.2033468750 -6.2885766563 -4.8902218800
-1.6271334375 -6.3059809063 -5.6648149448
-1.1435581250 -5.2419553125 -4.8519228160
-1.0729037500 -5.8162041875 -4.0799059040
0.0938475000 -6.5440302500 -4.8654965120
0.0109918750 -5.4113255938 -4.8775936800
0.5567156250 -6.1327984063 -6.4368347062
0.0157756250 -5.9806308125 -4.0120503760
1.1564715625 -6.3020947813 -4.1922515520
0.6680318750 -6.6648528594 -5.5343067072
0.6391009375 -6.0805695313 -3.2766746720
-1.6985940625 -5.1884606250 -5.6527618136
-0.5794653125 -4.2423396875 -5.6752050392
-1.0777950000 -4.6881018750 -4.0513856000
-0.5649796875 -5.3947934375 -5.6379265928
0.0084925000 -4.8959128125 -4.0415420800
0.5736871875 -5.5098372500 -5.7158276920
1.1123025000 -5.7147967500 -4.8590334640
1.0941618750 -5.1190828125 -4.0749841440
-2.2206678125 -4.0433840625 -4.7849739280
-2.2323853125 -3.4594978125 -4.0163763440
-1.7138725000 -4.1066478125 -5.6614551960
-1.1314778125 -4.1164303125 -4.8549535840
-0.5562453125 -3.6624443750 -6.4271646135
-1.6701200000 -3.5592981250 -3.2247889600
0.0097690625 -4.3436987500 -4.9144032640
1.0453165625 -3.9741271875 -4.0691298400
-0.0325725000 -3.8083353125 -4.0634698160
0.6209200000 -4.3549728125 -5.6466199752
1.1422009375 -3.3931837500 -4.8038449920
1.1703659375 -4.5668284375 -4.8535806720
-1.6624875000 -2.9848987500 -5.6941602912
-1.1038368750 -3.0413765625 -4.8952472560
-1.1557056250 -2.5072225000 -4.0385890240
-0.5279996875 -3.0650937500 -5.6835383560
0.0225078125 -3.2430600000 -4.8765704720
0.5946631250 -3.2377253125 -5.6661736096
1.1616718750 -2.7982653125 -4.0464249840
1.7240581250 -2.9172678125 -6.4684403062
1.7010128125 -2.9516543750 -3.2530243200
1.6738825000 -3.4822071875 -5.6682394536
-1.6354378125 -5.7703567813 -3.2780993920
-0.5374193750 -5.9359780000 -3.2251386640
-0.5216975000 -6.5236657188 -2.4430710000
0.5222484375 -5.5322563750 -2.4348076240
0.5586371875 -6.6471996125 -2.4998266640
1.6896446875 -6.2348602500 -3.2412898080
-1.7034584375 -5.2308021875 -2.4405194560
-0.5300959375 -4.7834946875 -3.2019027760
-0.6357684375 -4.2264028125 -2.3920530720
0.5689975000 -4.9549303125 -3.2039621440
1.6603643750 -5.1579575000 -3.2614301680
1.6766371875 -5.6848499375 -2.3960034320
-1.6688837500 -2.9661400000 -2.4584579760
-1.7980315625 -4.0998887500 -2.3608646560
-1.0924284375 -3.5694971875 -4.0178658240
-0.5629909375 -3.6600659375 -3.1671137040
0.5105175000 -3.8328990625 -3.2159945520
0.5792771875 -4.4031328125 -2.3998372240
1.6180631250 -4.0479259375 -3.2857281200
1.7325640625 -4.5914459375 -2.4498837520
-1.6898462500 -2.3982309375 -3.2077829840
-0.0081162500 -2.7126953125 -4.0487563440
-0.5420553125 -3.0660478125 -2.4441330640
0.5709728125 -2.7350150000 -3.2897432400
0.5990706250 -3.2819346875 -2.4196019760
1.6800906250 -5.6414978750 -5.6801449320
1.6177809375 -2.3679159375 -5.6122699760
-0.5592956250 -2.4961231250 -3.2587361520
1.6854521875 -3.4987084375 -2.4391594960
2.2385128125 -2.3902221875 -4.9131987280
-2.2135862500 -5.7438634063 -4.0705157040
-0.5129631250 -6.4839632813 -5.6322380744
-1.6294446875 -6.2965867500 -2.3833104720
-0.5805268750 -5.3781175000 -2.4427083440
1.6342015625 -2.3864596875 -2.4269069040
1.7347812500 -4.5675271875 -5.6546385584
1.7174468750 -6.2561452500 -6.4246683746
2.2232209375 -4.0877681250 -4.0176067840
2.2246587500 -3.5234065625 -4.8239983040
2.2178728125 -5.2653500000 -4.0742070240
-1.6412562500 -5.7331913438 -6.4723744373
-0.5613246875 -4.8207703125 -6.4361375001
0.5480215625 -4.9331884375 -6.4279809781
-1.7301184375 -2.4000987500 -6.4537629702
0.5351350000 -3.8081337500 -6.4609793066
6.7024771875 -5.7480532188 -4.9132764400
6.7127837500 -4.0323653125 -4.0532247840
6.7185215625 -4.6282781250 -4.8015913440
6.7136840625 -2.3569240625 -4.9482079840
2.2642590625 -6.3559495938 -4.0531859280
2.2450300000 -5.7973218125 -4.8885510720
6.1146537500 -5.7623063750 -5.6736404376
6.1756465625 -4.7051943750 -5.6878915232
6.6849950000 -2.8925159375 -4.0874180640
3.3086350000 -6.4742923125 -4.0685729040
4.4540071875 -6.5581221563 -4.0249246640
5.6671581250 -6.5138536563 -4.0271135520
3.3563784375 -4.8228531250 -4.8338547760
2.7782971875 -6.3658086875 -6.4275492879
2.8326787500 -5.8177978750 -5.6215423128
3.3599528125 -5.3809138438 -4.0160784480
3.9852803125 -6.0416867813 -5.6818869760
4.5052578125 -5.9860850938 -4.8003997600
5.0783403125 -4.9112315625 -5.6488775088
4.4999500000 -5.3794760313 -4.0438734400
5.0495975000 -5.9773090625 -5.6862867704
5.5902956250 -5.9559407500 -4.8114996240
5.6279609375 -5.3487296875 -4.0852809840
2.2788118750 -4.6524656250 -4.7953225760
2.8169434375 -4.1930375000 -3.2927740080
3.4122381250 -4.2630871875 -4.0489506240
3.4184865625 -5.9232889688 -4.8673745520
3.3392321875 -3.6935925000 -4.8482444480
3.8969825000 -4.8792368750 -5.6679881848
4.4881250000 -4.8672371875 -4.9064895920
4.5018715625 -4.3067993750 -4.0552323440
5.0570015625 -4.3218493750 -6.4124532138
5.6410893750 -4.7587831250 -4.8365358400
5.5472821875 -4.1912906250 -4.0580817840
2.8001600000 -3.0828043750 -6.4647925437
3.8790703125 -3.7450715625 -5.6696175464
3.4154362500 -2.5560543750 -4.8691878320
4.4847253125 -3.2408025000 -4.0114675360
4.4942928125 -2.6833881250 -4.8176000160
5.0177103125 -2.5690753125 -5.7065553552
5.6272353125 -3.6534681250 -4.9088339040
5.6288075000 -3.1321065625 -4.0251707520
6.2006268750 -3.6158296875 -5.6747076824
2.7880796875 -6.4203515000 -3.1732529520
3.8780625000 -6.5527847813 -3.2520399680
5.0523521875 -6.5260360938 -3.3022419200
6.2141315625 -6.3441259375 -3.2158650320
2.8530500000 -5.8344093125 -2.4340305040
3.9444975000 -5.4402672813 -3.2448645600
3.9822971875 -5.9836206563 -2.4354163680
5.0728443750 -5.4443952813 -3.2550189280
5.0662465625 -6.0038508125 -2.4163769280
6.1760765625 -5.2293240625 -3.2949369920
6.1602337500 -5.7684835938 -2.4466587040
2.8090153125 -4.7267481250 -2.4400661360
2.7796140625 -5.2908946875 -3.2472606800
3.9471178125 -4.3093525000 -3.2026021840
3.8978156250 -4.8849209375 -2.4288885600
5.0361196875 -4.3244696875 -3.1743927280
5.0692296875 -4.9029675000 -2.4249122960
6.1415153125 -4.1775709375 -3.2783066240
6.2201784375 -4.6977500000 -2.4122840960
3.3553706250 -3.1267718750 -4.0742976880
2.8103993750 -3.0919418750 -3.2167716720
6.1868937500 -3.0277643750 -3.1920722080
3.9087134375 -3.7408790625 -2.4111443200
3.9012421875 -3.1962840625 -3.2351117040
5.0631693750 -3.7071778125 -2.4633149760
5.0548515625 -3.1326306250 -3.2292185440
6.1821637500 -3.6172406250 -2.4456743520
2.2719856250 -2.9329762500 -4.0609441760
2.8185156250 -2.5477768750 -5.6410493200
4.4737737500 -3.7559962500 -4.9002855840
3.9555431250 -2.6366928125 -5.6913807920
5.5498487500 -2.5745309375 -4.8342562880
6.1050459375 -2.4710890625 -5.6438534280
2.7572137500 -3.6615843750 -2.4279560160
3.9409365625 -2.6142253125 -2.4554531120
5.0049984375 -2.5589703125 -2.4348335280
6.1210634375 -2.4406128125 -2.4278394480
2.8090287500 -2.5292331250 -2.4207158480
6.2011912500 -6.3481477813 -6.4357352110
3.9249325000 -5.4550189688 -6.4416831579
2.8003346875 -4.7238859375 -5.6941253208
2.7718471875 -3.6493831250 -5.6664041552
3.9870406250 -4.3220643750 -6.4570302418
5.0408900000 -3.7297796875 -5.6731340144
5.0891843750 -3.1576512500 -6.4425855238
6.2173968750 -3.0401671875 -6.4506371346
-3.9533931250 -1.9285096875 -2.4247309680
-6.1406768125 -1.7616428125 -6.4458174363
-5.5435882188 -2.1765928125 -4.8512881680
-5.6464146563 -1.6105650000 -4.0728859200
-4.9861859375 -2.1144309375 -5.6917382672
-4.4725912500 -2.0594043750 -4.7881471680
-4.5268250000 -1.4624434375 -4.0438863920
-3.9535678125 -1.9267762500 -5.6946550576
-3.4044175000 -1.8670868750 -4.8585153840
-3.3416106250 -1.3067700000 -4.0391459600
-6.6882112656 -0.7075650000 -3.9988134320
-6.2095802813 -1.1879153125 -5.6684997888
-5.6384596563 -1.0594528125 -4.9136779520
-4.9982931250 -0.4501831250 -6.4387122282
-5.5295420000 -0.5289134375 -4.0514892160
-5.0204650000 -1.0189253125 -5.6237959608
-4.4540878125 -0.9098934375 -4.8495396480
-3.9558925000 -0.2656190625 -6.4672211862
-4.4820646875 -0.3252412500 -4.0836490320
-3.9039296875 -0.8498681250 -5.6861585456
-3.3579640625 -0.7445584375 -4.8413410320
-3.4020390625 -0.1801162500 -4.0335377440
-2.8216196875 -0.6970031250 -5.7005158376
-6.6416382344 0.9523290625 -4.8743686320
-6.1673851875 -0.0465743750 -5.7418094040
-5.6555763438 0.0413740625 -4.8324300560
-5.5450609688 0.5987346875 -4.0135528080
-5.1023665625 0.1202253125 -5.6545802744
-4.5086037500 0.2185609375 -4.9144032640
-3.8733056250 0.8339043750 -6.4372994240
-4.4064518750 0.7538975000 -4.0496111760
-3.9061737500 0.2859365625 -5.6249098328
-3.3057190625 0.3576121875 -4.8885640240
-3.3564590625 0.9226456250 -4.0614363520
-2.7503471875 0.4277962500 -5.7007994864
-6.1957141250 1.6506221875 -6.4536375949
-6.2309795000 1.6617215625 -3.2064748320
-6.0864887500 1.0731053125 -5.6789844328
-5.5456159375 1.1676650000 -4.8188822640
-5.6599959375 1.7146250000 -3.9988911440
-5.0256250000 1.2278784375 -5.7243267944
-4.5058490625 1.3392484375 -4.8068757600
-4.4603228125 1.9056793750 -4.0008598480
-3.9722862500 1.4248587500 -5.6665518080
-3.3964759375 1.4633840625 -4.8731770480
-2.8253418750 1.5621362500 -5.6369577832
-6.1605078750 -1.7556496875 -3.1769572240
-5.0812025000 -1.6184931250 -3.2468850720
-5.0013703125 -2.1761493750 -2.4030363680
-3.9327934375 -1.3953903125 -3.2927351520
-2.7961825000 -1.2605853125 -3.2008795680
-6.0941911250 -0.6072675000 -3.2477658080
-6.1934082500 -1.1610806250 -2.4320618000
-5.0048506250 -0.4781600000 -3.1760117280
-5.0187181250 -1.0760346875 -2.4126985600
-3.9428715625 -0.3115618750 -3.2092077040
-3.8912312500 -0.8650793750 -2.4005236800
-2.8172256250 -0.1234771875 -3.2644479840
-2.7931456250 -0.6640409375 -2.4440424000
-6.2067275000 -0.0488453125 -2.4544817120
-4.9738637500 0.6577925000 -3.2407587760
-5.0919256250 0.1044900000 -2.4136052000
-3.8900353125 0.8506878125 -3.1812961440
-3.8977081250 0.2632406250 -2.4175296560
-6.1430606250 0.5100606250 -3.2888754560
-5.0478640625 1.7794206250 -3.2728538320
-5.0794825000 1.2259837500 -2.4549997920
-2.7742121875 2.0915334375 -3.1862438080
-3.9641700000 1.4238106250 -2.4134109200
-2.7968543750 0.9811121875 -3.2416654160
-2.7967603125 1.5148631250 -2.3884912720
-2.8309184375 -1.8353743750 -5.6459827368
-2.2601875000 -1.2840203125 -4.0568642960
-2.2628750000 -0.7199678125 -4.8820362160
-2.2430950000 -0.1817018750 -4.0381098000
-6.1318215000 2.1982809375 -5.6142503368
-3.2785753125 2.0356468750 -4.0668761920
-6.1285736563 1.0632556250 -2.4698945920
-3.8555546875 1.9629500000 -3.2667145840
-2.8313081250 -1.8186178125 -2.4254951360
-2.7627903125 0.4226362500 -2.4143693680
-6.6807294000 -1.8289646875 -4.0680548240
-6.6938380844 -0.1573396875 -4.8231564240
-6.7067319838 2.1055890625 -4.8617015760
-6.0985247188 2.2052684375 -2.3970007360
-2.7407528125 -1.2948778125 -6.4614831394
-2.7971903125 1.0155525000 -6.4592057892
-2.7465040625 2.1219962500 -6.4623080522
0.4988134375 -2.1609784375 -5.6771918760
-2.2353146875 -1.8291528125 -4.9197394880
-2.2329228125 0.4031518750 -4.7963846400
-2.2334603125 1.5328156250 -4.8916595520
-2.2282062500 2.1047156250 -4.0833511360
1.6961350000 -1.8081500000 -3.1983280240
-1.6846056250 0.9221887500 -3.2230922480
-1.6760459375 -1.2599000000 -6.4555939945
-1.6307078125 -1.8377662500 -5.6698688152
-1.1660659375 -1.3770481250 -4.0597396400
-0.5348528125 -1.9602356250 -5.7011569616
-0.5705159375 -1.4297903125 -3.3055058240
-1.0961103125 -1.9434118750 -4.8524149920
-0.0316184375 -2.1013293750 -4.7793527600
0.0393584375 -1.5062900000 -4.0433812640
1.0550990625 -2.2285690625 -4.8386211120
1.6867825000 -1.8332646875 -6.4390642635
1.1700434375 -1.6552715625 -4.0723289840
-1.6898596875 -0.6936437500 -5.6641271936
-1.1455200000 -0.7974081250 -4.8230398560
-0.5251509375 -0.3038218750 -6.4555801358
-0.5548209375 -0.3637531250 -3.2198412960
-0.5875009375 -0.8669471875 -5.6394523384
-0.0217418750 -0.9533771875 -4.8478947440
0.5559765625 -1.0852796875 -5.6084038040
-0.0003090625 -0.3628931250 -4.0843354880
1.1495512500 -1.0857634375 -4.8760005840
1.0641156250 -0.5366937500 -4.0426689040
1.6992928125 -1.2405634375 -5.6733658552
-2.2333931250 1.0056221875 -4.0463213680
-1.7041034375 0.3993356250 -5.6655117624
-1.0825921875 -0.2170156250 -4.0547531200
-0.5941659375 0.7626721875 -6.4614385845
-1.1317196875 0.3463112500 -4.8519746240
-0.5519990625 0.2347128125 -5.5931321008
0.0681818750 0.1980418750 -4.8942240480
-0.0325053125 0.7273987500 -4.0408815280
0.6376900000 0.0417368750 -5.6606327440
1.1905490625 0.0212446875 -4.8413928400
1.7106878125 -0.0953256250 -5.7387229424
1.1308731250 0.5764687500 -4.0013520240
2.2259218750 -0.1933387500 -4.8413669360
-1.6423043750 1.4938737500 -5.6091770384
-1.1250143750 0.9143815625 -4.0514892160
-1.0492940625 1.4729784375 -4.8527906000
-0.5073059375 1.3477409375 -5.6811033800
0.0358915625 1.3137575000 -4.8116420960
0.0359050000 1.8624240625 -3.9847087040
0.5492846875 1.2111353125 -5.7288599944
1.0771096875 1.1158231250 -4.8502779120
1.6475987500 1.0629600000 -5.6535195056
1.1148287500 2.2209903125 -4.8739023600
-1.7004618750 -1.2743990625 -3.2183906720
-0.5741440625 -0.9181440625 -2.3963660880
0.5991512500 -1.6499100000 -3.2625828960
0.5365593750 -2.2003637500 -2.4298470080
1.6802787500 -1.2214687500 -2.4251195280
-1.6719071875 -0.7061675000 -2.4161437920
-0.5712146875 0.2079318750 -2.4188637120
-0.5765762500 0.7721590625 -3.2024726640
0.5239684375 -0.5072521875 -3.1976027120
1.6259106250 -0.6717271875 -3.2481802720
-1.6377221875 1.4828415625 -2.4244589760
-1.6723640625 -0.1713012500 -3.2753665200
-0.5818303125 1.8965687500 -3.2836946560
-1.6882606250 0.3590500000 -2.4051475440
-0.5022937500 1.3592031250 -2.4391594960
0.5315606250 0.6153568750 -3.2527652800
1.6910018750 0.4730671875 -3.2317700880
1.7147056250 -0.1033209375 -2.4576549520
-1.7125959375 2.0632878125 -3.1894818080
0.6189581250 1.7496028125 -3.2409660080
1.1946206250 1.6668412500 -4.0282662800
1.6877500000 1.0536075000 -2.4717467280
2.2280181250 -0.7317256250 -3.9934254000
1.7523575000 1.6528931250 -3.1996102720
2.2325196875 -1.8482206250 -4.0693241200
1.7026925000 2.1705325000 -5.6332742344
-1.6452337500 -1.8253096875 -2.4194206480
-0.5274487500 -1.9605984375 -2.4261815920
0.5265887500 -1.1049118750 -2.4399754720
0.5976596875 0.0599178125 -2.4198869200
0.5900540625 1.1756603125 -2.4566317440
-1.1750825000 2.0225318750 -4.0333952720
1.6925875000 2.2141237500 -2.4093310400
0.5122106250 -0.5278653125 -6.4359301386
2.2134787500 0.9123256250 -4.8698742880
1.6363918750 -0.6778546875 -6.4747836583
0.5221543750 0.6108687500 -6.4544196366
-1.7202418750 2.0492590625 -6.4358468572
1.6986075000 0.5187143750 -6.4739533768
1.7172721875 1.6170553125 -6.4724340165
6.6665318750 -1.2484109375 -4.8513917840
2.7624409375 -1.9582200000 -3.2001672080
3.3388290625 -0.3673946875 -4.8495526000
4.4646900000 -2.0996496875 -4.0237330800
5.6470825000 -2.0013275000 -4.0356877760
2.2615312500 -1.2679356250 -4.8603934240
2.8001196875 -0.8126865625 -3.2337776480
2.8035731250 -1.3713506250 -5.6994382312
3.9307778125 -0.9268918750 -3.2466907920
3.3580581250 -1.4843868750 -4.8748608080
3.9511356250 -1.4912131250 -5.6511738984
4.5002590625 -1.5615181250 -4.8439055280
5.0709900000 -1.4873834375 -5.6502050888
5.6174796875 -1.4330959375 -4.8122767440
6.1568609375 -0.7651043750 -3.2730999200
6.1353340625 -1.3522425000 -5.7315268112
2.2717034375 0.3697596875 -4.0159618800
2.7924334375 -0.2355862500 -5.6672421496
3.3604096875 -0.9322937500 -4.0423192000
3.9519553125 0.1585221875 -6.4587005317
3.3723690625 0.2060640625 -4.0797375280
3.9177971875 -0.3935306250 -5.6385975064
4.4956365625 -0.3730921875 -4.8545520720
4.4929625000 0.1850612500 -4.0661249760
6.2145750000 -0.2317565625 -5.6926293648
5.6587462500 -0.3099090625 -4.8749126160
5.5663365625 -0.8508490625 -4.0321389280
2.7875018750 0.8559418750 -5.6498955360
3.3375256250 0.8007271875 -4.8266016560
3.4496481250 1.3572412500 -4.0325015840
3.8760200000 0.7182612500 -5.6634912504
4.4559825000 0.7457812500 -4.8791867760
5.0380009375 0.7346415625 -5.6344748848
4.5397787500 1.2858343750 -4.0430056560
5.0653059375 -0.4139825000 -5.6391894128
5.6296137500 0.7990475000 -4.8974620480
6.1591990625 1.5104153125 -3.2347101920
6.2147093750 0.8974368750 -5.6382011752
3.3164421875 -2.0247356250 -4.0224637840
5.0642443750 -2.0139990625 -3.2847178640
6.2019975000 -1.8762512500 -3.2225871200
2.7990984375 -0.2333690625 -2.4554660640
2.8414534375 -1.3676687500 -2.4418276080
3.8979096875 -2.0553059375 -3.2532833600
3.9468759375 -1.5022721875 -2.4418923680
4.4598659375 -0.9694753125 -4.1052270640
5.0379203125 -1.4804496875 -2.4254303760
5.0021496875 -0.9152953125 -3.2433103200
6.1070346875 -1.2983446875 -2.4303262320
2.8599837500 1.4321150000 -3.2631527840
2.8442618750 0.3335456250 -3.2249184800
3.9229840625 0.1399918750 -3.2472606800
3.9222046875 -0.3980321875 -2.3803444640
5.0164875000 0.1977462500 -3.2314592400
5.0639890625 -0.3661584375 -2.4177498400
5.5825153125 0.2509318750 -4.0611514080
6.6997225000 0.4143318750 -4.0206246000
2.2742162500 1.4604009375 -4.0528750800
3.9793543750 1.2309690625 -3.2039750960
3.9060393750 0.6847884375 -2.3814712880
5.6160821875 1.3421509375 -4.0726527840
6.1243421875 0.3896471875 -3.2359147280
6.2198828125 0.9424659375 -2.4282409600
6.7057425000 1.5136537500 -4.1017688800
2.2627003125 2.0352975000 -4.8255784480
2.8083703125 1.9754468750 -5.6859940552
3.3475096875 1.9121965625 -4.8505110480
3.9250668750 1.8500884375 -5.6457858664
4.4995334375 1.8456943750 -4.8644344480
5.0586543750 1.8683634375 -5.6717662832
5.6004006250 1.9435462500 -4.8233248000
6.1483012500 2.0063531250 -5.6481521968
3.9864493750 1.8092250000 -2.4401956560
5.0687996875 1.3375418750 -3.1796123840
6.1089159375 2.0281621875 -2.2644111120
6.1738862500 -0.1911618750 -2.4725108960
2.7959943750 0.9124062500 -2.4157293280
5.0677515625 0.7302609375 -2.4260261680
2.8273978125 1.9659868750 -2.3591420400
2.8215928125 1.4045412500 -6.4679460708
5.2010381250 1.8805646875 -2.2677786320
2.7766712500 -1.9634471875 -6.4306529757
3.8687906250 -2.0500250000 -6.4640884212
2.8208940625 -0.7908909375 -6.4757074182
5.0475550000 0.1585356250 -6.4323856942
3.9648956250 1.2969606250 -6.4545819252
6.1844212500 1.4380946875 -6.4617267665
5.0719171875 1.2829856250 -6.4505217322
-6.0878244375 6.6359078125 -2.3646207360
-6.6631128375 6.6032815625 -4.9088986640
-3.2814375000 6.5242690625 -4.0889593520
-6.0580899375 6.6569375000 -5.6559868616
-3.9169371875 3.0684128125 -3.2587102480
-6.1555427188 2.7728146875 -3.1994418960
-5.5134129688 2.2511575000 -4.8916984080
-5.0614090625 2.9451506250 -6.4237657497
-5.6183034063 2.7903640625 -4.0788567920
-4.9585853125 2.3596921875 -5.6882502936
-4.4319562500 2.4587803125 -4.8236097440
-4.5294318750 3.0200378125 -3.9983989680
-3.8831150000 2.5176634375 -5.7068545464
-3.3786981250 2.6103553125 -4.8041299360
-2.8144575000 2.6790612500 -5.6190050160
-6.6790170594 2.6889646875 -4.0988805840
-6.1684628750 3.3089978125 -5.6348375408
-6.6433324344 3.7963893750 -4.0201194720
-6.1189309063 2.7567971875 -6.4568070788
-5.5864444375 3.3768303125 -4.8610280720
-4.9835521875 4.0668325000 -6.4634252529
-5.5391121875 3.9538500000 -4.0945416640
-5.0262700000 3.5158546875 -5.6338376464
-4.4143934375 3.5330546875 -4.8942499520
-3.9653659375 4.2289156250 -3.2001283520
-3.8505425000 3.6384987500 -5.6633474832
-3.2824990625 3.7639243750 -4.8483480640
-3.4123993750 4.3012362500 -4.0154956080
-2.7297206250 3.7487131250 -5.6919364328
-6.1383185313 5.5581128125 -5.7145558056
-6.1895651250 4.4143800000 -5.7056137448
-5.5257566563 5.0546634375 -4.0051210560
-5.6608666875 4.5326434375 -4.8631781040
-4.4751712500 4.0993109375 -4.0938293040
-3.9509071875 5.9080521875 -5.6601509296
-4.4758431250 4.6701225000 -4.8801322720
-5.0745778125 4.6116290625 -5.6253981232
-3.2934371875 4.8335359375 -4.8879423280
-2.7918287500 5.4773265625 -6.4417345774
-3.3358996875 5.3911384375 -4.0740127440
-2.7475521875 4.8860496875 -5.7024715896
-6.6399826000 5.4771384375 -4.8250085600
-5.5836521250 5.6302318750 -4.8208509680
-5.6172969375 6.1782400000 -4.0079964000
-5.0640293750 5.7064762500 -5.6954269968
-4.5136428125 5.8235706250 -4.8526869840
-4.4213003125 6.3590818750 -4.0063903520
-3.3806331250 5.9568706250 -4.8711435840
-2.7622662500 6.5854231250 -3.1850392720
-2.8054140625 6.0370387500 -5.6384679864
-6.1829995625 3.3110806250 -2.3518241600
-5.0956075000 2.9451237500 -3.2107748960
-4.9905531250 2.3492915625 -2.4772383760
-3.9486631250 2.5184159375 -2.4464514720
-3.3594421875 3.1992671875 -4.0416845520
-2.7688371875 3.1860178125 -3.2599147840
-6.0646555000 3.8544796875 -3.2275865920
-5.0136253125 4.0621831250 -3.1909971920
-4.9797628125 3.4879315625 -2.3879213840
-3.8534046875 3.6502028125 -2.4680942640
-2.7777596875 3.7691784375 -2.4558675760
-2.8030625000 4.3153053125 -3.2918026080
-6.1318886875 5.0046625000 -3.2758716480
-6.1812217813 4.4225500000 -2.4664882160
-4.4172287500 5.2409878125 -4.0923009680
-4.9510334375 5.1500293750 -3.2378704800
-3.8853590625 5.3628793750 -3.2150102000
-3.8529612500 4.8081659375 -2.4086316320
-2.8036000000 5.4800409375 -3.2208126960
-2.7470415625 4.8629506250 -2.4699334480
-6.2053515000 6.1142103125 -3.2349951360
-5.0291590625 6.2836571875 -3.2800680960
-5.0532121875 5.7300993750 -2.4631466000
-3.8322675000 6.4614353125 -3.2532445040
-3.9598431250 5.9305600000 -2.3982182240
-2.7698718750 6.0001662500 -2.3928431440
-2.8126703125 2.6692115625 -2.3984902160
-5.0668781250 4.6253756250 -2.3723530800
-6.0842742500 5.5335893750 -2.4356106480
-3.9012690625 4.7988537500 -5.6342909664
-6.7184236864 4.9053056250 -4.0037610960
-3.9397675000 4.2233928125 -6.4218642666
-2.8440200000 4.3068396875 -6.4714400800
-3.8860578125 5.3494284375 -6.4621920023
-2.7347059375 6.5838912500 -6.4734842942
0.5540550000 2.3285843750 -2.4865508640
-2.2111137500 2.6819234375 -4.8908565280
-2.2195390625 3.2015246875 -4.0524865200
-2.2198884375 4.9328390625 -4.8303965920
-1.6833962500 6.6105781250 -3.2352023680
1.6096109375 6.6465637500 -5.5689040896
-2.2280046875 6.5825206250 -4.0816803280
1.6869571875 6.6324812500 -2.4564633680
-1.6299687500 2.6285093750 -5.6611857944
-1.0727559375 2.5819484375 -4.8384656880
-1.0605681250 3.1344850000 -4.0224767360
-0.5370162500 2.4732390625 -5.7171099400
-0.0226421875 2.4133481250 -4.8232988960
0.6156793750 2.8934296875 -6.4549259303
0.0814984375 2.9663146875 -4.0253779840
0.5393812500 2.3341878125 -5.6415259536
1.6983925000 2.7275975000 -6.4441869090
1.1487584375 3.3439218750 -4.8324818640
-2.2173621875 3.8254950000 -4.7890667600
-2.2035081250 4.3856775000 -3.9986709600
-1.6834231250 3.7601484375 -5.6982647800
-1.1588634375 3.6893193750 -4.8321062560
-1.0445103125 4.2571478125 -4.0491837600
-0.4819762500 3.0725515625 -6.4670010152
-0.5890865625 3.6086137500 -5.6358167120
0.5659740625 4.0231471875 -6.4264161174
0.0125506250 4.0373909375 -4.0477460880
0.0058587500 3.5181121875 -4.9034976800
0.6036796875 3.4608550000 -5.6374706824
1.1359390625 3.9120996875 -4.0625631760
1.7084303125 3.3078421875 -5.6679130632
-1.6690450000 5.4178925000 -6.4618873713
-2.2270640625 5.5015678125 -4.0229948160
-1.6767178125 4.8334015625 -5.6639147808
-1.1065243750 4.8127346875 -4.8733972320
-1.0630943750 5.9095840625 -4.8598494400
-0.5354306250 4.7245846875 -5.6606107256
0.0376518750 4.6206321875 -4.8605877040
0.0038431250 5.1786109375 -4.0615270160
0.5934806250 4.6213309375 -5.6861326416
1.1279437500 4.5070853125 -4.8283113200
1.1431550000 5.0939546875 -4.0968341680
1.6943478125 4.3955809375 -5.6252038432
-2.2038575000 6.0180784375 -4.8996120800
-1.6483512500 6.5621225000 -6.4311903542
-1.6299015625 5.9776450000 -5.6686331944
-1.1257534375 6.4630612500 -4.0505307680
-0.5083540625 5.8468712500 -5.6911865120
0.0126581250 5.7511290625 -4.8151520880
0.0322903125 6.3462893750 -4.0559317520
0.5672775000 5.7002412500 -5.6396582752
1.1710243750 5.7080753125 -4.8657037440
1.7074090625 6.0750131250 -6.4155252987
1.1456678125 6.2273540625 -4.1418423680
1.7202150000 5.4572778125 -5.6765559328
-1.6508775000 3.1875631250 -3.2596816480
-1.6322665625 2.6456825000 -2.4245107840
-0.5013262500 3.0152540625 -3.2330005280
-0.5349468750 2.4414728125 -2.4496635680
1.1499543750 2.7509384375 -4.0453758720
1.7463509375 2.7587859375 -3.2569099200
-1.6128090625 4.2859578125 -3.2503562080
-1.7023968750 3.7460390625 -2.4225938880
-0.5121837500 4.1780681250 -3.1749108080
-0.5636359375 3.5817521875 -2.4550904560
0.5808493750 4.0720596875 -3.2471441120
0.5892881250 3.5265778125 -2.4197185440
1.7014831250 3.8160350000 -3.2667663920
1.6984731250 3.2817465625 -2.3602818160
-1.1290187500 5.3462437500 -4.0315949440
-1.6623128125 5.4611612500 -3.2026928480
-0.5394484375 5.3085112500 -3.2407976320
-0.5361428125 4.7682162500 -2.4206510880
0.5794115625 5.1399781250 -3.2837982720
0.6001187500 4.6053268750 -2.3724696480
1.6562793750 4.9144968750 -3.2224187440
1.7109162500 4.3537365625 -2.4207288000
-1.6188828125 6.0409356250 -2.4459852000
-0.5340196875 6.3901493750 -3.2864663840
-0.5205956250 5.8479059375 -2.3971043520
0.5974984375 6.1942306250 -3.2380129520
0.5840609375 5.6528740625 -2.3975706240
1.6772015625 6.0576384375 -3.2474290560
1.7320265625 5.4987862500 -2.4696614560
2.2380290625 3.1613868750 -4.8380900800
2.2170396875 4.8944481250 -4.0380061840
0.6389262500 2.9381900000 -3.1799361840
-1.6940656250 4.8687825000 -2.4624990000
-0.4847846875 6.4260678125 -6.4621212844
2.1792265625 6.5285825000 -4.8868414080
-1.6584159375 3.1758456250 -6.4754440911
-0.5170078125 4.1542031250 -6.4596962814
2.2731681250 3.7711268750 -4.0831957120
2.8046212500 6.4887537500 -5.6484099416
3.3332525000 6.3765103125 -4.8387894880
3.9227556250 6.3249506250 -5.6260625608
4.4958650000 6.3232978125 -4.8139346000
5.0068259375 6.3793053125 -5.6748592208
5.6012337500 6.3948659375 -4.9033552080
6.1889496875 6.5142715625 -5.6540375856
2.8011006250 6.4307709375 -2.4097973120
3.9718025000 6.3627234375 -2.4004200640
5.0471384375 6.3767387500 -2.4417239920
6.1346756250 6.5138818750 -2.4467234640
6.7088600000 4.3668515625 -4.8339842960
6.6930575000 6.0541581250 -4.0741681680
2.2979871875 2.6182834375 -4.0534061120