ITEM: TIMESTEP
136000
# source: voids-relax.136000.cfg
ITEM: NUMBER OF ATOMS
2298
ITEM: BOX BOUNDS pp pp pp
-6.7187500000 6.7187500000
-6.7187500000 6.7187500000
-6.4760000000 6.4760000000
ITEM: ATOMS x y z
-5.0743896875 -6.3983301250 -5.7956379160
-5.6258230313 -6.0372577813 -4.1303280400
-5.0359584375 -5.4851955625 -5.7581444664
-4.5443743750 -6.4550417500 -4.8571295200
-3.9406006250 -5.2149862500 -5.6427887736
-4.4636821875 -5.9285376563 -3.9986191520
-3.9584456250 -6.3986002188 -5.6538083352
-3.4225446875 -6.2967614375 -4.8606136080
-3.3694665625 -5.7358143438 -4.0354546400
-2.8337000000 -6.3062966875 -5.6445813304
-6.1519011563 -5.5774010000 -5.6555659216
-5.5823554063 -5.4701469063 -4.8335180240
-6.1814744063 -4.9530759375 -6.2890145664
-5.6096980313 -4.8906318750 -4.0249246640
-4.5106462500 -5.3661043750 -4.8345023760
-4.5055265625 -4.7791275000 -4.1085427760
-3.3994859375 -4.6512831250 -4.0645059760
-2.7706646875 -5.1732896875 -5.6536529112
-2.8284056250 -4.5908546875 -6.4151069491
-6.1175817813 -4.0556793750 -6.3513960611
-6.6329491438 -4.5943753125 -4.9456305360
-4.5135487500 -4.2103987500 -4.8831630400
-5.0124965625 -3.8090340625 -6.4720047484
-5.5719709063 -3.8786940625 -4.0508675200
-3.9194903125 -4.1214962500 -5.6307485944
-4.4849134375 -3.6550134375 -4.0706581760
-3.3236446875 -4.0791546875 -4.8427528000
-3.3619550000 -5.2005409375 -4.8894318080
-3.9275931250 -3.6002153125 -3.2348915200
-2.7838200000 -4.0035015625 -5.6757969456
-6.1492996563 -3.4698850000 -5.6783821648
-5.5898199375 -3.2949421875 -4.8291791040
-5.7121697188 -4.4224962500 -5.0022307760
-5.6113212813 -2.7176000000 -4.0824963040
-5.0386996875 -3.2044003125 -5.6741209568
-4.4886087500 -3.0850350000 -4.8788888800
-3.8911371875 -2.4592775000 -6.4597103991
-4.4711131250 -2.5536490625 -4.0278777200
-3.8951684375 -3.0311371875 -5.6673846216
-3.3718987500 -2.9248196875 -4.8338806800
-3.3188878125 -2.3696359375 -4.0032041600
-2.8001600000 -2.9104684375 -5.6542487032
-6.1394069688 -6.3136187813 -3.2472347760
-5.0701837500 -5.9357428438 -3.2826066880
-5.0237706250 -6.4982795938 -2.4161437920
-3.9079475000 -5.7683814688 -3.1984057360
-3.9697331250 -6.3711245625 -2.4717208240
-2.8008318750 -5.7397676563 -3.2023301920
-2.8125225000 -6.2946074063 -2.3804351280
-6.1659648438 -5.1320096875 -3.2557442400
-6.1650027188 -5.6530608438 -2.4776657920
-5.0158425000 -4.8835906250 -3.2350728480
-5.0499200000 -5.4457511250 -2.3873255920
-3.9617378125 -4.6582840625 -3.2411214320
-3.9239650000 -5.2105518750 -2.4122193360
-2.7689581250 -4.0222737500 -2.4390947360
-2.2805721875 -4.6369990625 -4.0080093520
-6.1647783125 -3.9147065625 -3.2467814560
-6.1221733750 -4.5042365625 -2.4875093120
-5.0321959375 -3.7179143750 -3.2268094720
-5.0605893750 -4.3187721875 -2.4714229280
-3.9089956250 -4.1167259375 -2.3610718880
-3.3842612500 -3.5016915625 -4.0665782960
-6.1232913750 -2.8322621875 -3.1999729280
-6.1562253438 -3.3855915625 -2.3764977200
-5.0665287500 -2.6186865625 -3.2568969680
-5.0015315625 -3.1774178125 -2.4181902080
-3.9193559375 -2.4458668750 -3.2456028240
-3.9102050000 -3.0075140625 -2.4583025520
-2.7438568750 -2.3609015625 -3.2225612160
-2.8225871875 -3.4642950000 -3.2506152480
-2.2560890625 -6.2990444688 -4.8731381920
-2.2892931250 -5.7340795625 -4.0808125440
-2.8539637500 -4.5876296875 -3.2280399120
-6.1839442188 -6.6500847781 -5.5883761264
-6.7139389450 -2.3889590625 -4.9116574400
-6.1159262813 -2.3118681250 -5.6559596624
-2.7871659375 -5.1466162500 -2.4412318160
-2.8037075000 -2.9157896875 -2.4197444480
-3.9812625000 -5.8109837188 -6.4263702674
-5.0976634375 -4.3609928125 -5.6322937680
-6.1471845938 -2.8703306250 -6.4638757235
-2.2635871875 -2.9709103125 -4.8131186240
-6.7092493919 -4.0476975000 -4.0539889520
-6.7017641938 -3.4526581250 -4.8323134880
-6.6912704469 -2.9058190625 -4.0154438000
-6.7139214225 -6.2186949375 -4.0572787600
-5.5680794063 -6.6733175438 -4.8482703520
-2.8753831250 -5.7306664375 -6.4500667285
-3.9486093750 -4.6586871875 -6.4532490349
-2.2018821875 -5.1564793750 -4.8654576560
-2.2180609375 -4.0767628125 -4.8408877120
-1.6784378125 -4.6821490625 -3.2579072240
-1.6288803125 -5.2187621875 -5.6784015928
-1.6711815625 -6.3185503438 -5.6471393504
-1.0981393750 -6.4469738750 -4.8621419440
-1.1765068750 -5.8901158125 -4.0428761360
-0.5174781250 -6.5014965313 -5.6636259512
0.0052003125 -6.6012873031 -4.7972135680
-0.0110859375 -6.0319204063 -4.0198863360
1.1601534375 -6.2118512188 -4.0112603040
-1.0958684375 -5.3242062500 -4.8147894320
-0.5630043750 -5.4213445938 -5.7001959232
-0.5825962500 -4.3310675000 -5.6743799968
-1.1143718750 -4.7562971875 -4.0383558880
-0.0129268750 -5.4772486250 -4.8503685760
0.0321021875 -4.9311459375 -4.0245879120
0.5287387500 -5.6166331250 -5.7070060848
1.0690606250 -5.6791914063 -4.8737210320
1.1539050000 -5.1245787500 -4.0621228080
-2.2355296875 -3.5281634375 -4.0100557680
-1.6694615625 -4.1202062500 -5.6804790936
-1.1246112500 -4.1847062500 -4.8369503040
-0.5362503125 -3.7578103125 -6.4503461031
-1.0917028125 -3.6443978125 -4.0366850800
-0.0155606250 -4.3786093750 -4.8735008480
1.1349984375 -3.9994434375 -4.0675626480
0.0344403125 -3.8319450000 -4.0532765920
0.6340081250 -5.0391834375 -6.4503124279
0.5378090625 -4.4650931250 -5.6919170048
1.1235900000 -3.4441253125 -4.8822564000
1.0910309375 -4.5640737500 -4.8716098560
-1.6608750000 -2.4420506250 -6.4700361739
-2.2044890625 -2.3767309375 -4.0699587680
-1.7187503125 -2.9883790625 -5.6525960280
-1.1405750000 -3.0746478125 -4.8613000640
-1.0938662500 -2.5224471875 -4.0589107120
-0.5859421875 -3.1774178125 -5.6789455768
0.5964503125 -2.7504681250 -6.4553091800
-0.0251146875 -3.2680537500 -4.8655483200
0.5514750000 -3.3196940625 -5.6574517328
1.0887062500 -2.9027418750 -4.0519684400
1.6679834375 -2.9411462500 -3.2502655440
1.7167078125 -3.5192006250 -5.6236172232
-1.7279012500 -5.7978982813 -3.2325601600
-1.6373190625 -6.3506820938 -2.4067147360
-0.5995678125 -5.9775979688 -3.2575704720
-0.5316950000 -6.5464731875 -2.4528886160
0.5655575000 -6.1528323750 -3.2538143920
1.7274981250 -6.3092005313 -3.2230533920
-1.6627293750 -5.2229950000 -2.4335771840
-0.5353768750 -4.8500640625 -3.2427404320
-0.5542968750 -5.4166979063 -2.4574865760
0.6159346875 -5.0122278125 -3.2312649600
0.5401471875 -5.5836534688 -2.4515804640
1.7115612500 -5.1741900000 -3.2228461600
1.6530409375 -5.7438271250 -2.4246921120
-1.6493053125 -3.5299640625 -3.2404738320
-1.6957721875 -4.1014340625 -2.4707623760
-0.5151534375 -3.7215021875 -3.2357722560
-0.5949184375 -4.2762559375 -2.4406101200
0.5877025000 -3.9087940625 -3.2178596400
0.5213481250 -4.4657784375 -2.3999408400
1.6680775000 -4.0787515625 -3.2083010640
1.6958931250 -4.6352118750 -2.3893202000
-1.6875618750 -2.9786234375 -2.4102894880
0.0134509375 -2.7075218750 -4.0485879680
-0.5697634375 -3.1797828125 -2.3902786480
0.5505343750 -2.7863865625 -3.2027058000
0.5750309375 -3.3579909375 -2.4085021120
1.6514284375 -5.7203343438 -5.6518059560
2.2101865625 -4.1633943750 -4.0677957840
2.2303562500 -3.0564131250 -4.0382134160
2.2354490625 -5.3026390625 -4.1073770960
1.1845828125 -2.3224300000 -4.8328056640
1.7292584375 -2.4073415625 -5.6696628784
-1.6456234375 -2.4333968750 -3.2328839600
-0.5459790625 -2.6249484375 -3.2235585200
1.7170975000 -3.5010600000 -2.4411411520
1.6980565625 -2.3922915625 -2.4143564160
1.6647046875 -4.6386250000 -5.6590577808
0.5976462500 -3.8773637500 -6.4498607917
1.7202553125 -6.3214904688 -6.4092246688
2.2187193750 -5.8835180000 -4.8919833520
0.5496340625 -6.7168571803 -2.4639625760
-1.7634165625 -5.7738021563 -6.4744742414
-1.6496143750 -3.5590025000 -6.4690963379
1.7001796875 -4.0357784375 -6.4435819211
-0.5168062500 -2.5993634375 -6.4329019610
6.6899265625 -5.1217165625 -4.0297428080
2.2462259375 -4.7146812500 -4.8706773120
6.7048153125 -5.7063512813 -4.8440091440
6.2519581250 -4.6399687500 -5.6458363792
2.2717437500 -6.4178736250 -4.0530175520
3.3494984375 -6.6019949219 -4.0783257600
4.4441440625 -6.5536515000 -4.0812399600
5.5781212500 -6.3986338125 -3.9962489360
2.8149143750 -4.8549553125 -5.6515002888
2.7914390625 -6.4859936875 -6.4172198089
3.3652337500 -6.0083819375 -4.8453820560
2.7744943750 -5.3664671875 -3.2534905920
3.9263434375 -6.0594605625 -5.6847066264
4.4695409375 -5.9640180313 -4.8576087440
5.0831912500 -4.8759312500 -5.6672680536
4.5144893750 -5.4184138750 -4.0404670640
5.0194437500 -5.9905248438 -5.6801229136
5.6108953125 -5.8779562188 -4.8825931520
5.5873393750 -5.3023300000 -4.0993727600
3.3803240625 -4.8787665625 -4.8191413040
3.3493371875 -5.4561745938 -4.0470337280
3.3517693750 -4.3164206250 -4.0352344560
3.8935021875 -4.9022821875 -5.7183792360
4.4454475000 -4.8775975000 -4.9126288400
4.5318909375 -4.3517881250 -4.0186040880
5.6147115625 -4.7300403125 -4.8870356880
5.6664325000 -4.2004012500 -4.0686117600
6.1485700000 -5.7717462188 -5.6864486704
2.2960253125 -3.5981056250 -4.8625305040
2.7818312500 -2.6228521875 -5.6845291840
2.8698603125 -3.7445206250 -5.6631428416
3.4075618750 -3.7736531250 -4.8316140800
3.3786846875 -3.1767459375 -4.0624207040
4.5570056250 -3.8043040625 -4.8386340640
4.5026509375 -2.6464081250 -4.8482055920
5.0445046875 -2.5596153125 -5.6578415880
5.6508181250 -3.6146203125 -4.8762855280
6.2048328125 -3.5853803125 -5.7139185672
5.6160284375 -3.1193409375 -3.9814966080
2.8342106250 -6.4654759688 -3.2122125680
3.9118443750 -6.5994952781 -3.2292962560
4.9982662500 -6.5129976875 -3.2417172240
6.1796106250 -6.3743791250 -3.2549282640
2.7911568750 -5.9116991250 -2.4049921200
3.9254565625 -5.4994917188 -3.2696287840
3.9036743750 -6.0286026875 -2.4143693680
5.0713125000 -5.3915039375 -3.2043248000
5.0463993750 -5.9560065938 -2.4181643040
6.1334393750 -5.2387706250 -3.2202039520
6.1727843750 -5.8166449375 -2.4453376000
2.7693478125 -4.2629125000 -3.2596298400
2.8631146875 -4.8182306250 -2.4327741600
3.9344865625 -4.3446393750 -3.2752240480
3.9215596875 -4.9315759375 -2.4775621760
5.1110740625 -4.2560862500 -3.2350858000
4.9952159375 -4.8097918750 -2.4352220880
6.1967434375 -4.1144415625 -3.1852076480
6.2055046875 -4.6784940625 -2.3895533360
2.8155593750 -3.1588471875 -3.2460302400
2.8226812500 -3.7199434375 -2.4247309680
6.1839643750 -2.9625521875 -3.2255142720
3.9362737500 -3.8367287500 -2.4060541840
4.4622309375 -3.2225812500 -4.0784811840
5.0188659375 -3.6746993750 -2.4611390400
4.9947187500 -3.1167206250 -3.2703022880
6.1113346875 -3.5190796875 -2.4376052560
2.2597171875 -2.4623681250 -4.7974078480
3.3364506250 -2.6164559375 -4.8651338560
3.9726490625 -3.7655100000 -5.6385884400
3.9157546875 -2.7035981250 -5.6292772472
5.6284581250 -2.5734425000 -4.8365876480
6.1524937500 -2.3940115625 -5.6979357992
2.7870181250 -2.6098984375 -2.4214541120
3.9104200000 -3.2634446875 -3.2135725280
5.1036028125 -2.5874712500 -2.3930115200
6.1654340625 -2.3685475000 -2.4542226720
3.9369725000 -2.6990965625 -2.4138124320
3.8707256250 -5.4782537500 -6.4611751408
2.8338881250 -5.8818450313 -5.6582210816
5.0882168750 -3.6938209375 -5.6934259128
6.1721931250 -2.9717971875 -6.4269975327
6.1923493750 -6.3275239063 -6.4191435694
5.0513578125 -4.2912118750 -6.4247375382
5.0400971875 -3.1213565625 -6.4656512613
2.7854862500 -4.2769681250 -6.4555484034
3.9291921875 -4.3093793750 -6.4680305955
-6.1594301875 -1.7269203125 -6.4137920621
-6.6985850156 -1.8487581250 -4.0168167120
-5.5770449063 -2.1351515625 -4.8520005280
-5.5918476563 -1.5838512500 -4.0124777920
-5.0063421875 -2.0939790625 -5.6649975680
-4.4704143750 -1.9827703125 -4.8144008720
-4.4915381250 -1.3924340625 -4.0643505520
-3.9358034375 -1.8883181250 -5.6792473584
-3.3817618750 -1.8362209375 -4.8585153840
-2.7601700000 -1.2723028125 -6.4530714630
-3.3606112500 -1.2881187500 -4.0255334080
-2.7989775000 -1.8197062500 -5.6399302672
-6.1566849063 -1.0996175000 -5.6986365024
-5.6028731250 -1.0468484375 -4.8896649440
-5.5856690938 -0.5105712500 -3.9920265840
-5.0134237500 -0.9851031250 -5.6708984992
-4.4849000000 -0.8276425000 -4.8499541120
-4.4598659375 -0.2782368750 -4.0173347920
-3.9115890625 -0.7874778125 -5.6477739984
-3.3542284375 -0.7254637500 -4.8209934400
-3.3610681250 -0.1244715625 -4.0904876880
-2.8256912500 -0.6843450000 -5.6789818424
-6.1322918125 0.0624978125 -5.6352869752
-5.5629677813 0.0250475000 -4.8332201280
-5.6248340313 0.6407671875 -4.0890888720
-5.0423815625 0.2095846875 -5.6949192784
-4.4856121875 0.2656996875 -4.8787075520
-3.9124356250 0.8896968750 -6.4260872662
-4.4902615625 0.7912000000 -4.0159877840
-3.8967003125 0.3069931250 -5.6594670640
-3.3552228125 0.4568481250 -4.8424937600
-2.7973784375 1.0052459375 -6.4468608494
-3.3374046875 0.9955843750 -3.9990206640
-2.7918018750 0.4208625000 -5.6558249616
-6.0918879375 1.6671368750 -6.4669740491
-6.6694123375 1.7112387500 -4.0192775920
-6.1541237188 1.1474953125 -5.5689843920
-5.5666093438 1.2184856250 -4.8389190080
-5.5792835938 1.8105418750 -4.0823926880
-5.0048775000 1.3219946875 -5.6426968144
-4.4256003125 1.3503612500 -4.8335698320
-4.5094503125 1.9446212500 -4.0820818400
-3.9190871875 1.4950025000 -5.6981909536
-3.3530325000 1.5313106250 -4.8758192560
-2.8174003125 2.1283521875 -6.4439116790
-2.7700196875 1.5661137500 -5.6467520856
-6.1598695938 -1.6493725000 -3.2192196000
-6.1939914375 -2.2383918750 -2.4601676400
-5.0120800000 -1.5444121875 -3.2059826560
-5.0333784375 -2.0954571875 -2.3800854240
-3.9344462500 -1.3091350000 -3.2324824480
-3.8898875000 -1.8865309375 -2.4372685040
-2.7900146875 -1.2144409375 -3.2452790240
-2.8099425000 -1.7759403125 -2.4477207680
-6.2031423750 -0.4968112500 -3.2736439040
-6.1435524375 -1.0529759375 -2.4642734240
-5.0226015625 -0.3637531250 -3.2207220320
-5.0758140625 -0.9477200000 -2.4665141200
-3.8811262500 -0.2213693750 -3.2110986960
-3.9249728125 -0.7777356250 -2.3843984400
-2.8204640625 -0.1364846875 -3.2381424720
-2.7737015625 -0.6912653125 -2.3801760880
-6.1545066875 0.5634075000 -3.2428051920
-6.1281544063 0.0346150000 -2.3728970640
-5.0840781250 0.7850590625 -3.2498381280
-5.0324109375 0.2210603125 -2.4638330560
-3.9331293750 0.9177275000 -3.2435046000
-3.9495096875 0.3547768750 -2.4384989440
-6.1021179063 1.6634415625 -3.2060992240
-6.1903189688 1.1313568750 -2.4011453760
-5.0372484375 1.8427112500 -3.2175876480
-5.0038696875 1.3006828125 -2.3510081840
-2.8200340625 2.1820484375 -3.2026021840
-3.8908684375 1.4772650000 -2.4423845440
-2.7770609375 0.9704293750 -3.1912432800
-2.8068250000 1.5732356250 -2.4790646080
-2.2457421875 -1.7999665625 -4.8420792960
-2.2476368750 0.9629984375 -4.0423969120
-2.2847378125 2.0565690625 -4.0275539200
-6.2343160313 2.2215412500 -5.6721924040
-3.3827428125 2.0629653125 -4.0125555040
-3.9672875000 2.0534515625 -3.2348008560
-2.8122671875 0.3950625000 -2.3982959360
-2.2566668750 -0.6813215625 -4.8582952000
-6.6643468031 -1.2930771875 -4.8198666160
-6.6733320563 -0.0791468750 -4.8053474240
-6.1855809063 -0.5162418750 -6.4447557609
-5.0428787500 -0.4080565625 -6.4189211836
-6.1853753125 0.6136771875 -6.4603506165
-5.0621481250 0.7682487500 -6.4742634736
-5.0536690625 1.8846765625 -6.4653347663
-3.9331025000 2.0824496875 -6.4433294866
-2.2196600000 -1.2381984375 -4.0473186720
1.6623531250 -1.8554096875 -3.2883314720
-1.6741109375 0.9444412500 -3.2078606960
-1.6433928125 -1.3165525000 -6.4437309986
-1.6782362500 -1.8951846875 -5.6524108144
-1.0999131250 -1.3783515625 -4.0435755440
-0.5534771875 -2.0300300000 -5.6633021512
-0.5698978125 -1.5071903125 -3.1896631360
-1.1141703125 -1.9519312500 -4.8486718640
0.0198337500 -2.1654396875 -4.8862974240
-0.0348300000 -1.6123387500 -4.0434460240
0.6198718750 -2.1976493750 -5.6267788064
1.0679990625 -1.7648543750 -4.0495205120
-1.6467925000 -0.1670818750 -6.4249257308
-2.2321837500 -0.1256137500 -4.0271912640
-1.6966993750 -0.7488718750 -5.6670491648
-1.1298250000 -0.8505265625 -4.8924237200
-0.5839265625 -0.3443628125 -6.4626462290
-0.5626281250 -0.3314493750 -3.2196081600
-0.5113775000 -0.8912690625 -5.6101290104
0.0641237500 -1.0489850000 -4.8477004640
0.6377303125 -1.1039578125 -5.6449944992
-0.0373831250 -0.4917318750 -4.0641174160
1.1719112500 -1.1693715625 -4.7886004880
1.1437731250 -0.5806075000 -4.0394568080
1.7027193750 -1.3231100000 -5.6804531896
-2.2166903125 0.4058125000 -4.8740189280
-1.7078525000 0.9539146875 -6.4711898603
-1.6383000000 0.4088896875 -5.6509873896
-1.1372156250 -0.3075709375 -4.0257924480
-1.0784131250 0.2418346875 -4.8522725200
-0.4967978125 0.2045456250 -5.6408977816
0.0366171875 0.1179140625 -4.7838341520
0.0266465625 0.6995159375 -4.0390293920
0.5698440625 -0.0305568750 -5.6656684816
1.1201634375 -0.0209490625 -4.8423124320
1.6616543750 -0.2114525000 -5.6815023016
1.1764396875 0.5239415625 -4.0021420960
-2.2038978125 1.5240409375 -4.8573756080
-1.6259509375 1.5105362500 -5.6409923312
-1.1495646875 0.8050943750 -4.0610736960
-1.0835328125 1.4036006250 -4.7904396720
-0.5597390625 1.2675190625 -5.6711938048
-0.0050390625 1.2724103125 -4.8297878480
0.0535215625 1.8161856250 -4.0014685920
0.5225440625 1.0890421875 -5.6878021544
1.0895125000 1.0590093750 -4.8898721760
1.6607003125 0.9737350000 -5.6902643296
1.0824309375 2.1328000000 -4.8777620560
1.6971159375 0.3790987500 -6.4339259461
-1.6747559375 -1.3640675000 -3.2346065760
-0.5431303125 -0.9153221875 -2.4584450240
0.5364115625 -1.6269587500 -3.2272498400
0.5954962500 -2.2063031250 -2.4518654080
1.6854656250 -1.3312800000 -2.4047978400
-1.6662634375 -0.7962525000 -2.4428378640
-0.5213346875 0.2214365625 -2.4044740400
-0.5727465625 0.7503365625 -3.2736309520
0.5460462500 -0.5533025000 -3.2818425200
1.6799965625 -0.7715812500 -3.2209292640
-1.6566556250 1.5037100000 -2.3995911360
-1.6993062500 -0.2083887500 -3.1979006080
-0.5543506250 1.8219771875 -3.2524932880
-1.6554193750 0.3610521875 -2.4398070960
-0.5284968750 1.2890459375 -2.3980239440
0.5710937500 0.5257825000 -3.2434398400
1.7314218750 0.4078415625 -3.1881477520
1.6661962500 -0.1891731250 -2.4687418640
-1.6904778125 2.0332146875 -3.2665203040
0.6116481250 1.7029478125 -3.1990533360
1.1601803125 1.5782746875 -4.0234481360
1.6540218750 0.9984196875 -2.4436408880
1.7331687500 1.5710721875 -3.2232735760
1.6630115625 2.1310800000 -5.6605602128
1.7391887500 1.5544903125 -6.4420827271
-1.6866750000 -1.8888556250 -2.3658900320
-0.5459118750 -2.0847743750 -2.4042927120
0.5777990625 -1.0801734375 -2.3950967920
0.5751518750 -0.0193096875 -2.4018447840
0.5477393750 1.1047640625 -2.4764094480
-1.1071021875 1.9874062500 -4.0479662720
1.6752665625 2.1023640625 -2.3633255360
-0.5416253125 -1.4362134375 -6.4266015901
2.2364434375 -0.2326971875 -4.8906363440
2.2081709375 0.8413890625 -4.8790831600
2.2181953125 1.9706228125 -4.8595126880
0.5225171875 -1.6496681250 -6.4682676430
0.5985868750 1.6686687500 -6.4478699398
6.7025712500 -0.6734337500 -4.0944769040
6.7182662500 0.5625206250 -4.0789733600
2.2429471875 -1.3263618750 -4.8370409680
2.2676856250 -0.7690146875 -4.0105608960
2.2664896875 0.2905859375 -4.0245620080
6.6746615625 1.1071559375 -4.8529719280
2.2676990625 -1.8810753125 -4.0284864640
3.4097925000 -2.0822481250 -4.0077891680
4.4914306250 -2.0668218750 -4.0766420000
6.1413406250 -1.7964190625 -6.4543166682
5.6021609375 -1.9874868750 -4.0932076080
2.8217003125 -0.8765146875 -3.2024079040
2.7848815625 -1.4914953125 -5.6860743576
3.3419600000 -1.5342803125 -4.8763761920
3.3816409375 -1.0110106250 -4.0083331520
3.9073696875 -1.5757484375 -5.6879705304
4.4462268750 -1.4948009375 -4.8664938160
4.5463228125 -0.9586446875 -4.0295096720
5.0556309375 -1.4939275000 -5.6103595560
5.6341153125 -1.3985212500 -4.8368596400
5.6101293750 -0.8027159375 -4.0945934720
6.2010300000 -1.2567825000 -5.6308470296
2.8009393750 -0.3539034375 -5.6945294232
3.3421884375 -0.4591593750 -4.8359659520
3.3716703125 0.1278040625 -4.0731838160
3.8795943750 -0.4091584375 -5.6930710280
4.4289059375 -0.4137809375 -4.8536842880
4.4964831250 0.1519915625 -4.0380709440
6.2028171875 -0.1938628125 -5.5740732328
5.5703409375 -0.2302112500 -4.8894447600
5.6351365625 0.2749446875 -4.0141226960
2.8043525000 0.8012109375 -5.6542590648
3.3585015625 0.6826115625 -4.8715191920
3.8952893750 1.2486259375 -6.4498851414
3.3402265625 1.2603837500 -4.0847240480
3.9618184375 0.6905128125 -5.6261869000
4.5247959375 0.7145256250 -4.8322357760
5.0678053125 0.7571628125 -5.6907137640
4.4086421875 1.2761593750 -4.0425005280
5.0022034375 -0.3746106250 -5.6453519744
5.5878500000 0.8767565625 -4.8002831920
6.1901187500 1.4716078125 -3.2334408960
6.1364493750 0.9128631250 -5.6525364488
2.8106278125 -2.0551984375 -3.2322881680
3.9641431250 -2.1392903125 -3.1972141520
5.0445987500 -2.0393421875 -3.2440874400
6.1245571875 -1.8106762500 -3.2667793440
2.8053871875 -0.3082159375 -2.4313882960
2.7953896875 -1.4817934375 -2.4702572480
3.9600850000 -0.9684675000 -3.2495402320
3.9041850000 -1.5388356250 -2.4599604080
5.0859459375 -0.9509718750 -3.2023042880
5.0317256250 -1.5068812500 -2.3797745760
6.1576806250 -0.7711243750 -3.2379222880
6.2083803125 -1.2908062500 -2.3644912160
2.8004153125 1.3468406250 -3.2238305120
2.8467746875 0.2583359375 -3.2221856080
3.9238575000 0.1292418750 -3.2421964480
3.9339490625 -0.4255387500 -2.4014173680
5.0557115625 0.2037393750 -3.2304101280
5.0346281250 -0.3693296875 -2.4457909200
6.2074665625 0.3278481250 -3.2173286080
6.1559606250 -0.2034571875 -2.3962236160
2.2672018750 1.4001471875 -4.0807218800
3.8785059375 1.2290071875 -3.2077700320
3.9413800000 0.6675346875 -2.3995004720
5.5948375000 1.4085725000 -3.9896304640
5.0843200000 1.8888153125 -2.4717985360
6.1429396875 0.9383809375 -2.4536398320
2.8115818750 1.9323528125 -5.6060530160
3.4050625000 1.8349309375 -4.8757285920
3.9996584375 1.8032184375 -5.6229398336
4.5609965625 1.8523996875 -4.8412244640
5.1167984375 1.8563771875 -5.6901529424
5.6245209375 1.9741300000 -4.8371445840
6.1849184375 2.0373937500 -5.6971768120
3.9767071875 1.8081096875 -2.4451951280
5.0126846875 1.3114596875 -3.2661058400
6.1706881250 2.0839009375 -2.4550645520
2.7862118750 0.8055781250 -2.3750730000
5.0634784375 0.7710840625 -2.4340305040
2.8462640625 1.8861278125 -2.3749046240
5.0920465625 -0.9293375000 -6.4361421628
2.8476346875 1.3736350000 -6.4340254174
3.9238171875 -2.1463853125 -6.4601414417
3.9841918750 -0.9933268750 -6.4458518886
2.8101171875 0.2320790625 -6.4541625394
5.0935112500 0.1803850000 -6.4663588420
6.1927793750 0.3588350000 -6.4490022036
-3.9139137500 3.1351434375 -3.2030814080
-6.2567889063 2.8050378125 -3.3684136880
-5.6636737813 2.3774968750 -4.8790702080
-4.9903381250 2.9727243750 -6.4315816341
-5.6414965313 2.9043275000 -3.9920006800
-5.0748331250 2.4066696875 -5.6078261448
-4.4908125000 2.5150968750 -4.8649913840
-3.9377653125 3.1781165625 -6.4522957677
-4.4756146875 3.0685068750 -4.0531211680
-3.8992937500 2.6288721875 -5.6166801320
-3.3230265625 2.6257546875 -4.8373777200
-2.7669021875 2.7012600000 -5.6564868088
-6.1598695938 3.3525890625 -5.6798638736
-5.5831334375 3.4812800000 -4.8082357200
-5.6329879063 4.0844221875 -4.0483677840
-5.0959300000 3.5536812500 -5.6864836408
-4.5299693750 3.6402456250 -4.8689935520
-4.4509971875 4.1687962500 -4.0253909360
-3.9387731250 3.7336228125 -5.6298186408
-3.3640378125 3.7880178125 -4.8498504960
-3.3150581250 4.3332578125 -4.0390164400
-2.7908478125 3.7725512500 -5.6376688480
-6.6906149656 4.3524331250 -4.8869320720
-6.1870025938 5.0111259375 -6.3998067515
-6.6996886375 4.8320846875 -4.0393920480
-6.0968208438 4.4294568750 -5.6437588784
-5.5710961250 4.6408825000 -4.8453950080
-5.6026393125 5.2030134375 -4.0418270240
-5.0114215625 4.6741940625 -5.6766945192
-4.4739618750 4.7457756250 -4.8122119840
-3.9127178125 5.9407321875 -5.6619020400
-4.5306950000 5.3446178125 -4.0836101760
-3.9423743750 4.8668609375 -5.6788238280
-3.3901065625 4.9073750000 -4.8324430080
-2.7548353125 5.4761575000 -6.4471662576
-3.3707028125 5.4464471875 -4.0017276320
-2.8423671875 4.8944212500 -5.6673276328
-6.1405236250 6.1852275000 -6.3837305996
-6.6338825125 6.0552465625 -3.9783363200
-6.1950167188 5.5955228125 -5.6368114256
-5.6063749375 5.7514246875 -4.8985759200
-5.7037215625 6.2476581250 -3.9170604080
-5.0104003125 5.7558993750 -5.6681578560
-4.4951125000 5.9416996875 -4.8512881680
-5.0698881250 6.3756234375 -6.3710763661
-4.5082409375 6.4370462500 -3.9868587360
-3.3817215625 6.0066162500 -4.8042983120
-3.3725571875 6.5969928125 -4.0532377360
-2.8410234375 6.0475871875 -5.6804169240
-6.1120334375 3.3353890625 -2.4333051920
-6.1632854063 2.2837971875 -2.4504536400
-5.0403659375 2.9867665625 -3.2588656720
-5.1115309375 2.4187096875 -2.4534196480
-3.9458009375 2.5810346875 -2.3837378880
-3.3939093750 3.2016590625 -4.0786754640
-2.8365621875 3.2677178125 -3.2479341840
-6.1763466563 3.9473328125 -3.1917484080
-5.0771846875 4.1142937500 -3.2873212160
-5.0332440625 3.5517328125 -2.4624860480
-3.9089418750 4.2866162500 -3.2573373360
-3.9446453125 3.7282478125 -2.4569555440
-2.7626962500 4.3372487500 -3.2402406960
-2.8067578125 3.8146643750 -2.3825204000
-6.1651008125 5.1534693750 -3.2129767360
-6.1765105938 4.5191118750 -2.4798676320
-5.0352328125 5.1852356250 -3.2001931120
-5.0120665625 4.6394043750 -2.4042797600
-3.9690478125 5.3738443750 -3.2582569280
-3.8799571875 4.8232159375 -2.4114033600
-2.7826778125 5.5008825000 -3.2526487120
-2.8243071875 4.9337662500 -2.4688454800
-6.1644813438 6.6512803125 -2.4863177280
-6.1621741250 5.7271834375 -2.5596778560
-5.1167850000 6.3633281250 -3.2516255040
-5.0594337500 5.8058600000 -2.4614239840
-3.9242875000 6.4780306250 -3.2121866640
-3.9364350000 5.9081865625 -2.4099009280
-2.8214584375 6.6078771875 -3.2299309040
-2.8215256250 6.0351843750 -2.4184362960
-2.2888362500 4.9052653125 -4.8738116960
-2.2507812500 6.5796181250 -4.0717979520
-2.7712290625 2.7260925000 -2.4039689120
-2.2544228125 3.2212778125 -4.0370865920
-2.2931093750 6.0001125000 -4.8586708080
-6.6849314406 3.1941206250 -4.7420898560
-3.8883287500 4.2863609375 -6.4526191791
-2.7858490625 4.3380281250 -6.4645070817
0.5116731250 2.2826281250 -2.4449360880
-2.2299800000 3.7828309375 -4.8206307840
-2.1887537500 4.3657362500 -4.0388869200
-2.2029840625 5.4541065625 -4.0308048720
1.0785878125 6.6785450000 -4.8186102720
0.5368818750 6.6976665625 -5.6767528032
1.6062918750 6.5452718750 -5.6775286280
1.6340940625 6.5610743750 -2.4491584400
2.1812421875 6.4678315625 -4.8845877600
-2.2139490625 2.6424843750 -4.8028865440
-1.6851834375 2.5887612500 -5.6707184664
-1.1343265625 2.5688334375 -4.8216021840
-0.5208643750 4.1195075000 -6.4423890419
-1.0693159375 3.1046403125 -3.9969094880
-0.6058162500 2.3790421875 -5.6805542152
-0.0323978125 2.3558625000 -4.8833055120
0.6114062500 2.8479303125 -6.4361931937
0.0524331250 2.8733943750 -4.0234222320
0.5262662500 2.2575940625 -5.6974254904
1.7247165625 2.7041625000 -6.4483127686
1.1230928125 3.2568065625 -4.8643696880
-1.7081212500 3.7013325000 -5.6884562304
-1.1468503125 3.6431750000 -4.8727755360
-1.0791790625 4.1797209375 -4.0354287360
-0.5805537500 3.5468818750 -5.6836769424
0.0056303125 3.9825256250 -4.0772248400
-0.0259343750 3.4226521875 -4.8774253040
0.5668206250 3.4179356250 -5.6500121040
1.0890421875 3.8336515625 -4.0784293760
1.7192475000 3.2402918750 -5.6120588584
-1.6509581250 5.4212115625 -6.4358908940
-1.6956781250 4.8427003125 -5.6507128072
-1.1370006250 4.7371353125 -4.8749644240
-1.1279975000 5.3072884375 -4.0849312800
-0.5435737500 4.6901443750 -5.6461226184
0.0159234375 4.5476262500 -4.8679832960
0.5185128125 5.0893053125 -6.4742018350
-0.0534812500 5.1272528125 -4.0802685600
0.6146312500 4.5366881250 -5.6208817608
1.1824865625 4.4077015625 -4.8433356400
1.0512156250 4.9613400000 -4.0287973120
1.7474796875 4.3420996875 -5.6480861416
-1.7018056250 5.9822003125 -5.6339917752
-1.1205128125 5.8801693750 -4.8733065680
-0.6241450000 6.3746156250 -6.4498752979
-1.1721934375 6.4350978125 -4.0500126880
-0.5210121875 5.8151990625 -5.6198650288
0.0545159375 5.6987496875 -4.8481537840
-0.0537231250 6.2526568750 -4.0348329440
0.6305546875 5.6212959375 -5.6465552152
1.1654881250 5.5361962500 -4.7955557120
1.1252293750 6.1081500000 -4.0153401840
1.6950465625 5.4391103125 -5.7033989528
-1.6877096875 3.1325903125 -3.2698101120
-1.6661021875 2.5909784375 -2.4254692320
-0.4995390625 2.9884059375 -3.2130933040
-0.5988825000 2.4034984375 -2.4738708560
1.1442837500 2.6854440625 -4.0767197120
1.6875618750 2.6437071875 -3.2173415600
-1.6335700000 4.2791987500 -3.2197376800
-1.7144234375 3.6876665625 -2.4619032080
-0.5222887500 4.1398921875 -3.1995066560
-0.6102506250 3.5616093750 -2.4421902640
0.5371506250 3.9458815625 -3.2183518160
0.5653962500 3.4027378125 -2.3629628800
1.6251178125 3.7425856250 -3.2371581200
1.7354262500 3.1869181250 -2.3912759520
-1.6523018750 5.4241409375 -3.1992994240
-1.7265037500 4.8426196875 -2.4296786320
-0.5978209375 5.2269859375 -3.2165514880
-0.5463015625 4.6834928125 -2.3603336240
0.4885740625 5.0397343750 -3.2347101920
0.6307562500 4.4895628125 -2.3929338080
1.6428553125 4.8742112500 -3.2660151760
1.7249584375 4.2975543750 -2.4556085360
-1.7446712500 6.5373303125 -3.2129896880
-1.6727134375 5.9793918750 -2.3977390000
-0.6216993750 6.3341956250 -3.2421834960
-0.5205553125 5.7838090625 -2.4016893600
0.5285371875 6.1518218750 -3.2669477200
0.5811181250 5.6008575000 -2.4460370080
1.7026790625 5.9875350000 -3.2418856000
1.6641671875 5.4232003125 -2.4474099200
2.1970581250 3.6778840625 -4.0311545760
0.6235403125 2.8576456250 -3.2037549120
2.2317940625 2.5557050000 -4.0844909120
2.2225221875 5.3694503125 -4.8111628720
-1.6521003125 4.2912253125 -6.4554925803
-0.5263871875 2.9573518750 -6.4420298830
0.5830665625 3.9886800000 -6.4389822774
1.6546131250 3.8000712500 -6.4605930779
-0.5596853125 5.2625281250 -6.4271618936
-1.6994675000 6.5489268750 -6.4269373059
6.6858953125 2.2563846875 -4.7027287280
2.2398431250 4.8141053125 -3.9986968640
6.6884484375 6.5848721875 -4.8159033040
2.7703018750 6.4090425000 -5.6308004024
3.3625731250 6.2899996875 -4.8987054400
3.9699750000 6.3138109375 -5.6351807688
4.5336915625 6.3102768750 -4.8255914000
5.0781387500 6.3395840625 -5.6700488480
5.6264693750 6.4932687500 -4.8246718080
6.1722468750 6.4948678125 -5.6652060952