ITEM: TIMESTEP
62000
# source: voids-relax.62000.cfg
ITEM: NUMBER OF ATOMS
2298
ITEM: BOX BOUNDS pp pp pp
-6.7187500000 6.7187500000
-6.7187500000 6.7187500000
-6.4760000000 6.4760000000
ITEM: ATOMS x y z
-5.0172937500 -6.3891093125 -6.4241830631
-5.6466619063 -6.4910851563 -4.0147832480
-4.4713415625 -6.2227154375 -4.0204173680
-3.3689559375 -6.6358007156 -4.7889501920
-3.3210512500 -6.0397719375 -4.1167025360
-2.8143231250 -6.5691637500 -5.6128320928
-6.1168104688 -5.9559971875 -5.6551410960
-5.5707736250 -5.9478016563 -4.8277025760
-5.0354209375 -5.2027178125 -6.4556564231
-5.5775689688 -5.3371331250 -4.0903581680
-5.0488853125 -5.7961661875 -5.7353437656
-4.4970609375 -5.6359495313 -4.9081215440
-3.9409231250 -5.0857712500 -6.4667805203
-4.4015606250 -5.1109396875 -4.1211062160
-3.8724187500 -5.6656665625 -5.6465448536
-3.4019046875 -5.3416884375 -4.6617356480
-2.8199534375 -4.9451478125 -6.4178371012
-3.0147165625 -4.9085171875 -3.4750604560
-2.8789037500 -5.5393755625 -5.6387969672
-6.1223924063 -4.3230721875 -6.3925672311
-6.6406873969 -4.3388612500 -4.0561648880
-6.0784571563 -4.8940181250 -5.6414469464
-5.5003893438 -4.7589443750 -4.8881366080
-5.5412178438 -4.2229225000 -4.0171146080
-4.8218990625 -4.6636590625 -5.4495527048
-4.4242028125 -4.1949456250 -4.2174561440
-3.9403050000 -3.9834125000 -3.2880594800
-3.9452903125 -4.5165453125 -5.6289379048
-3.4521609375 -4.4528515625 -4.8080673440
-2.7964109375 -3.7912562500 -6.4225018935
-3.2633371875 -3.9758740625 -3.9358149040
-2.8339418750 -4.3712725000 -5.6564842184
-6.6947721250 -3.7875340625 -4.8842251040
-6.1255058750 -3.7005665625 -5.6895221800
-5.6009757500 -3.6710443750 -4.8791220160
-5.0628468750 -3.0315403125 -6.4560758089
-5.6104827813 -3.1568853125 -4.0077373600
-5.0056165625 -3.6086540625 -5.7162538128
-4.4958784375 -3.5532512500 -4.8074456480
-4.4634806250 -2.9597840625 -4.0648815840
-3.9420787500 -3.4087443750 -5.6969281336
-3.3960862500 -3.3874459375 -4.8566632480
-3.3303634375 -2.8245759375 -4.1191504640
-2.8395856250 -3.2281846875 -5.6020987704
-6.2101231563 -6.5332211250 -3.2467426000
-5.0279765625 -6.3797500938 -3.2863368640
-3.8577987500 -6.2384198438 -3.2768948560
-2.7929709375 -5.9704720625 -3.2169530000
-2.7601565625 -6.5529312500 -2.4346651520
-6.1036551563 -5.4237794688 -3.2392563440
-6.1322044688 -5.9824502500 -2.4362323440
-5.0283796875 -5.2638046875 -3.2676600800
-4.9938990625 -5.8240758750 -2.4616441680
-3.9163056250 -5.1276693750 -3.2921523120
-3.9454246875 -5.6655281563 -2.4521374000
-2.8039762500 -4.3985640625 -2.5753756800
-2.8256912500 -5.3986661250 -2.4345615360
-6.1124715000 -4.2966540625 -3.2297884320
-6.1908121250 -4.8599003125 -2.4433429920
-4.9480503125 -4.1530475000 -3.2388030240
-5.0392775000 -4.7219509375 -2.4356754080
-3.9044000000 -4.5649875000 -2.4416203760
-2.8080746875 -3.5723325000 -2.8109078000
-6.2058500313 -3.1275109375 -3.2494884240
-6.1594960313 -3.7098787500 -2.4782227280
-5.0190943750 -3.0619896875 -3.2689423280
-5.0760290625 -3.5973262500 -2.4399754720
-3.8914731250 -2.9540596875 -3.2922300240
-3.8806559375 -3.4735131250 -2.3730395360
-2.8183543750 -2.7673187500 -3.1854666880
-2.2969659375 -5.3633093750 -4.8889396320
-2.3121368750 -4.8286581250 -4.0321130240
-2.2590990625 -4.2586931250 -4.8925532400
-2.3471953125 -3.6990346875 -4.0201065200
-2.2708837500 -2.5797715625 -4.0974558640
-6.7114826238 -2.6532612500 -4.8088056080
-6.1877954063 -2.6077753125 -5.7015714256
-5.6201201563 -2.6157437500 -4.8465606880
-5.0984428125 -2.4582696875 -5.6810826568
-4.5003934375 -2.4408950000 -4.9254383680
-6.1610561250 -2.5929806250 -2.4108075680
-5.0331768750 -2.4712368750 -2.5013031920
-3.9537828125 -2.3948984375 -2.4919907040
-6.6933507063 -5.9899658438 -4.8368855440
-6.6879792000 -5.4249713750 -4.0441065760
-6.6808283000 -4.8771271875 -4.8831500880
-3.9230378125 -2.2997206250 -5.6987142144
-5.0638546875 -4.2143090625 -6.4755014581
-2.2066928125 -6.4879931875 -4.8711306320
-1.6641268750 -5.8607911563 -6.4276650788
-2.2088293750 -5.9297927188 -4.0623170880
-1.6799159375 -6.4752530938 -5.7029715368
-1.1083518750 -6.3629397813 -4.9115538240
-0.5955634375 -5.7201542813 -6.4322660178
-1.1453587500 -5.8236405000 -4.0379414240
-0.5312515625 -6.3343461250 -5.6979202568
0.0144184375 -6.3238568125 -4.8832018960
-0.0471387500 -5.7570912813 -4.1012767040
0.6092831250 -6.2996249688 -5.6398655072
1.1677187500 -6.4139969063 -4.8314845600
1.0972256250 -5.8342561250 -4.0683656720
1.7163450000 -6.4977528438 -5.6826420776
-1.7184815625 -5.2896181250 -5.6555503792
-1.1309940625 -5.2915531250 -4.9150379120
-1.1978993750 -4.7543218750 -4.0881822320
-0.5273412500 -5.1608196875 -5.6482273184
0.0128462500 -5.1550281250 -4.8235061280
-0.0527153125 -4.5921312500 -4.0249635200
0.5730690625 -5.2544118750 -5.6612376024
1.1314643750 -5.2349275000 -4.8114866720
1.1396075000 -4.6786553125 -4.0033725360
1.6492515625 -5.4059734375 -5.7093115408
-1.6772956250 -4.1863187500 -5.6863761392
-1.1606775000 -4.1505078125 -4.7977834560
-1.1419993750 -3.5480375000 -4.0796339120
-0.6251393750 -4.0729600000 -5.6535246864
-0.0341446875 -4.0493771875 -4.8551608160
0.0038700000 -3.4954162500 -4.0168426160
0.4933981250 -4.1206093750 -5.7127723152
1.0503556250 -4.1697771875 -4.8946773680
1.7019937500 -3.6736378125 -6.4614002466
1.1077740625 -3.6194981250 -4.0419306400
1.6544250000 -4.2329065625 -5.6643875288
-2.1902184375 -3.1812071875 -4.8816217520
-1.6726462500 -2.4762221875 -6.4714284750
-1.6747962500 -3.0495600000 -5.6853231416
-1.1055703125 -2.9779381250 -4.8567927680
-0.5728406250 -2.3797946875 -6.4600222833
-1.1447675000 -2.4107412500 -4.0373197280
-0.5699784375 -2.9871696875 -5.7168509000
0.5534368750 -2.9514662500 -5.6832909728
-0.0186109375 -2.9744309375 -4.8894059040
1.1134581250 -3.0937559375 -4.8864787520
1.0805228125 -2.5098025000 -4.1033101680
1.6129568750 -2.5806853125 -3.2607696160
1.6886771875 -3.1126221875 -5.6524522608
-1.7163853125 -5.8497052188 -3.1970198720
-1.6509312500 -6.4713011250 -2.4811110240
-0.5801775000 -5.7437626250 -3.2381554240
-0.5650065625 -6.3153831250 -2.4398977600
0.5080718750 -5.7850910000 -3.2837335120
0.6045665625 -6.3033444688 -2.3902786480
1.6623396875 -5.9486898750 -3.2922041200
1.7387856250 -6.4901606563 -2.4376829680
-1.7762359375 -4.7023321875 -3.2376762000
-1.6815418750 -5.2643018750 -2.4639366720
-0.6643365625 -4.6542796875 -3.2674917040
-0.5291821875 -5.1874796875 -2.4316602880
0.5292762500 -4.7113890625 -3.2862850560
0.5634612500 -5.2385018750 -2.4289792240
1.7195834375 -4.8035434375 -3.2333890880
1.6260046875 -5.3895810313 -2.4909286400
-1.7500731250 -3.6449890625 -3.3342333600
-1.7208868750 -4.1485862500 -2.4060930400
-0.6200465625 -3.5425146875 -3.2579331280
-0.5956171875 -4.0890715625 -2.4486274080
0.5504537500 -3.5263628125 -3.1948309840
0.4777031250 -4.1425259375 -2.4967958960
1.6747156250 -3.6692168750 -3.2090263760
1.5882453125 -4.2468143750 -2.4259614080
-1.7143562500 -3.0896978125 -2.4355070320
-0.0041925000 -2.4154712500 -4.0669668560
-0.6435353125 -2.9668656250 -2.4616312160
0.5584221875 -2.3929634375 -3.2156707520
0.5220468750 -2.9588971875 -2.4238113760
2.1975418750 -5.4737024688 -4.8773605440
2.2098506250 -4.3766071875 -4.8715062400
2.1974343750 -3.7913771875 -4.1174408000
2.1989662500 -2.6495525000 -4.0464379360
-1.6990375000 -2.5282790625 -3.2813762480
-0.5387765625 -2.4073953125 -3.2619223440
1.7167884375 -3.1230496875 -2.3973245360
0.5664712500 -4.7062021875 -6.4672565193
1.7064550000 -4.8052768750 -6.4417239567
0.5682853125 -3.5411306250 -6.4366576524
2.2848721875 -6.0042646875 -3.9997977840
6.6730087500 -6.5750480313 -4.0805405520
6.6792168750 -3.2451696875 -4.0689873680
2.2579568750 -6.5613605938 -4.8200608960
2.7778806250 -6.6747924438 -5.7308092704
3.9762368750 -6.2506560313 -6.4690688020
3.4305937500 -6.1978775625 -4.0414773200
5.0529837500 -6.4495794063 -6.4622701029
4.4979209375 -6.3589327188 -4.1024682880
5.5732031250 -6.4929623750 -4.0840116880
2.2792956250 -4.9238628125 -4.0490930960
2.7683400000 -5.5078323750 -5.6844877376
3.3163078125 -5.6593751250 -4.8843416720
3.3459375000 -5.0757334375 -4.1132573040
3.9130268750 -5.6940035625 -5.6305594952
4.4987271875 -5.7757868750 -4.8687604160
4.4338106250 -5.2161553125 -4.0628092640
5.0640293750 -5.8965470000 -5.6487246752
5.6400143750 -5.9108982500 -4.8760912480
6.1479250000 -5.4424132500 -6.4405011584
5.5829318750 -5.3901534688 -4.0065328240
6.2208503125 -6.0123580938 -5.6787098504
2.8083568750 -4.4099053125 -5.6223997352
3.4026840625 -4.4957843750 -4.8625823120
3.3006128125 -3.9285068750 -4.0671999920
3.9625037500 -4.6141418750 -5.6579594512
4.5375078125 -4.6508128125 -4.8322616800
4.4856525000 -4.1013803125 -3.9980622160
5.0702375000 -4.7566196875 -5.6947988248
5.6296271875 -4.8409400000 -4.8381030320
6.2326350000 -4.2910371875 -6.4645580866
5.6723046875 -4.2862668750 -4.0539112400
6.1775278125 -4.8545253125 -5.6764872872
2.2597843750 -3.2059456250 -4.8543707440
2.8175078125 -3.3410731250 -5.6559933376
3.3826756250 -3.3592137500 -4.8443588480
3.3742637500 -2.8072953125 -4.0156639840
3.9218284375 -3.4903100000 -5.7160996840
4.4505134375 -3.5667559375 -4.8550831040
4.5007025000 -2.9950037500 -4.0591049920
5.0243215625 -3.6552015625 -5.6886025880
5.5729746875 -3.7199568750 -4.8637738960
5.5666187500 -3.1537946875 -4.0859285840
6.1573850000 -3.7321178125 -5.6433405288
2.8655334375 -6.0994062188 -3.2504986800
2.7840350000 -6.6928078313 -2.4986091760
3.9850921875 -6.2477172500 -3.2041564240
5.0346281250 -6.4489424688 -3.2186756160
6.1213456250 -6.5809739688 -3.2481155120
2.8229634375 -4.9520009375 -3.1995455120
2.7283365625 -5.5481784688 -2.4441330640
3.8638456250 -5.1508625000 -3.2305396480
3.9174478125 -5.6917070938 -2.3780390080
4.9902575000 -5.3343381250 -3.2665591600
5.0892784375 -5.8770962188 -2.4178405040
6.1942709375 -5.4478016875 -3.2670642880
6.1599515625 -6.0120033438 -2.4593516640
2.7267778125 -3.8713571875 -3.2482968400
2.8034521875 -4.4087900000 -2.3759019280
3.8591693750 -4.0492293750 -3.2868678960
3.9834662500 -4.5886778125 -2.4380197200
5.0719978125 -4.1837253125 -3.2679320720
5.0487643750 -4.7672353125 -2.4897629600
6.2038384375 -4.2924750000 -3.2397226160
6.1267206250 -4.8852434375 -2.4811498800
2.7659884375 -2.7685818750 -3.2916989920
2.8463178125 -3.3150581250 -2.4491584400
3.9457606250 -2.9041393750 -3.2458618640
3.9008928125 -3.4955640625 -2.4909934000
5.0449750000 -3.0545587500 -3.2009572800
5.0063959375 -3.6369534375 -2.4429673840
6.1264115625 -3.1902640625 -3.2442299120
6.1644800000 -3.7457165625 -2.4169209120
4.4317278125 -2.4512553125 -4.9067356800
5.0327871875 -2.5137262500 -5.6316915000
5.6194684375 -2.5855765625 -4.8952731600
6.2067678125 -2.6312640625 -5.6784831904
3.8459871875 -2.3456500000 -2.4373980240
5.0232062500 -2.4696243750 -2.4255728480
6.1455734375 -2.6324600000 -2.4146154560
3.2692362500 -2.2614775000 -4.8695504880
3.8487418750 -2.3482165625 -5.6582249672
2.8625637500 -6.0776912188 -6.4652777775
5.0294009375 -5.3329003125 -6.4603428453
5.0177371875 -3.0630646875 -6.4454177376
-2.8095125000 -2.2350996875 -2.4221146640
-5.5984857813 -2.0206103125 -4.0961218080
-3.9526003125 -1.7048693750 -6.4298368702
-4.5011593750 -1.8928331250 -4.0628999280
-3.4004400000 -2.2036962500 -4.8565466800
-3.3783353125 -1.6894700000 -4.0011836480
-2.8207596875 -2.1805568750 -5.6718025488
-6.1733568125 -1.5533078125 -5.6954231112
-5.6443667813 -1.4319940625 -4.8438407680
-5.6359643125 -0.8549340625 -4.0593899360
-5.0778565625 -1.3585446875 -5.6452354064
-4.4949512500 -1.3212018750 -4.8607560800
-4.4855987500 -0.7498931250 -4.1097732160
-3.9543875000 -1.1123831250 -5.6590655520
-3.3562978125 -1.1406153125 -4.8940686240
-2.8247371875 -0.3974946875 -6.4175643321
-3.3923775000 -0.6063268750 -4.0476942800
-2.8248581250 -1.0322821875 -5.7370715624
-6.1791698750 0.2028121875 -6.4638284098
-6.1696924063 -0.3563625000 -5.6594256176
-5.5918113750 -0.3103121875 -4.8958560000
-5.6500871250 0.2379646875 -4.0586387200
-5.0184762500 -0.2727275000 -5.6925529480
-4.5115868750 -0.1109937500 -4.8059820720
-4.5139921875 0.4623037500 -4.0436273520
-3.9711575000 -0.0595684375 -5.6662539120
-3.3999293750 -0.0246578125 -4.8470010560
-3.3602484375 0.5682181250 -4.1056285760
-2.8845878125 0.1580921875 -5.6577729424
-6.1910902813 0.7769428125 -5.6499693624
-5.6021676563 0.7930275000 -4.8832666560
-5.5854299063 1.3501865625 -4.0804498880
-5.0350312500 0.8816209375 -5.6655933600
-4.4425450000 1.0001665625 -4.9169030000
-3.9538903125 1.6443737500 -6.4197302950
-4.5025568750 1.5338771875 -4.0637029520
-3.8432056250 1.0391218750 -5.7030686768
-3.3437068750 1.1723546875 -4.8564819200
-2.7019050000 1.2343687500 -5.6704827400
-6.1676069063 -2.0507506250 -3.2653287200
-5.0830568750 -1.8872700000 -3.2509390480
-3.9469834375 -1.8031243750 -3.2510944720
-2.7709468750 -1.6596925000 -3.2597464080
-6.1709259688 -0.9377762500 -3.2377539120
-6.1982081250 -1.4965075000 -2.4463349040
-5.0412259375 -0.8191365625 -3.2855467920
-5.0492615625 -1.3370446875 -2.4046812720
-3.9707812500 -0.6049293750 -3.2456157760
-3.9096809375 -1.2156100000 -2.5021968800
-2.8417893750 -0.4695868750 -3.2261359680
-2.8337806250 -1.0874162500 -2.4908638800
-6.1986273750 0.2260053125 -3.2331559520
-6.1740327188 -0.3555025000 -2.4711379840
-5.0614090625 0.2849959375 -3.2675176080
-5.0901384375 -0.2532565625 -2.4454023600
-3.8971168750 0.4736315625 -3.2983563200
-3.9572765625 -0.0574721875 -2.4106262400
-6.1536171250 1.2990568750 -3.2688128080
-6.1702621563 0.7760693750 -2.3953040240
-5.0553487500 1.4704656250 -3.2112411680
-5.0296428125 0.8704678125 -2.4937780800
-2.8153175000 1.7816378125 -3.2802105680
-3.9616303125 1.0243271875 -2.4530440400
-2.8355006250 0.6946515625 -3.2275865920
-2.8470971875 1.2372846875 -2.4067147360
-2.2941171875 -0.9041556250 -4.8757544960
-2.2640978125 1.8430740625 -4.0727564000
-6.1722025313 1.8398893750 -5.7033199456
-5.6445710313 1.9347715625 -4.8457317600
-5.0772115625 2.0048615625 -5.6695048640
-4.5019118750 2.0868840625 -4.8983686880
-3.9009734375 2.2116915625 -5.6364824448
-3.3852690625 1.7267859375 -4.0747380560
-6.1954305938 1.8589168750 -2.4444050560
-5.0670662500 2.0359559375 -2.4204568080
-3.9335728125 1.5980412500 -3.2666627760
-3.8811396875 2.1479575000 -2.4477337200
-2.8065428125 0.1014531250 -2.4610224720
-2.2647159375 -2.0319246875 -4.8565984880
-2.2417781250 -1.4364150000 -4.0685729040
-2.2836359375 -0.3371334375 -3.9947465040
-2.2679409375 0.1245521875 -4.8923330560
-2.2946681250 0.7295218750 -4.0864466640
-6.1982094688 -0.9364459375 -6.4205377227
-5.1143393750 0.3109706250 -6.4538054528
-5.0218893750 1.4471381250 -6.4627476431
1.6905046875 -2.0163237500 -2.4554401600
-1.7407206250 0.8490753125 -3.2752370000
-1.7231981250 -1.9103556250 -5.6674778760
-1.1669662500 -1.3325700000 -4.1006032000
-0.5644556250 -1.7950618750 -5.7016854032
-0.6174934375 -1.2768984375 -3.2419115040
-1.1198409375 -1.9045103125 -4.9206590800
-0.0078071875 -1.8666568750 -4.8895483760
-0.0733956250 -1.2993659375 -4.0880397600
0.5645228125 -1.8585003125 -5.6790077464
1.1201903125 -1.9206353125 -4.8420663440
1.0716943750 -1.3506703125 -4.0391071040
1.6523018750 -2.0391406250 -5.7090965376
-1.7128378125 -0.2569250000 -6.4449945958
-1.7113328125 -0.8206281250 -5.6916644408
-1.1689550000 -0.7493018750 -4.8662347760
-0.5772212500 -0.1878293750 -3.2834097120
-0.5958993750 -0.6802734375 -5.6473789624
-0.0174418750 -0.7265790625 -4.8594738320
0.5355918750 -0.7577675000 -5.6693066984
-0.0031443750 -0.1616665625 -4.0703991360
1.0950084375 -0.7977440625 -4.8427398480
1.6807356250 -0.3392162500 -6.4524378511
1.1409915625 -0.2173918750 -4.0472668640
1.6257628125 -0.9407325000 -5.7141232088
-1.7172856250 0.3687250000 -5.7120897448
-1.1529509375 -0.1824409375 -4.0726268800
-1.1725293750 0.3769756250 -4.8394241360
-0.6061253125 0.3816787500 -5.6900635736
-0.0891443750 0.4313975000 -4.8333755520
-0.0091240625 1.0076512500 -4.0740256960
0.4654750000 0.3324571875 -5.6893045864
1.0187237500 0.3295009375 -4.8722574560
1.5890650000 0.2144625000 -5.6568080184
1.1018481250 0.9088856250 -4.0864596160
2.1902587500 0.1289462500 -4.9345177200
-2.1920593750 1.2954153125 -4.9303601280
-1.7070731250 1.8770306250 -6.4585192037
-1.2550087500 1.4517606250 -4.9813651040
-1.1467428125 0.9599884375 -4.0247951440
-1.1021303125 1.9949715625 -4.0850219440
-0.7185031250 1.5014256250 -5.7022669480
-0.1091662500 1.5379621875 -4.9095721680
0.5632731250 2.0575903125 -6.4217584487
-0.0209087500 2.0903912500 -4.0521368160
0.4546578125 1.4666090625 -5.6685386448
1.0693025000 1.4384709375 -4.9338312640
1.6765700000 1.3646453125 -5.6342236160
-1.6868093750 -1.3895315625 -3.2164349200
-0.5306737500 -0.7229643750 -2.4261686400
0.4868137500 -1.3073478125 -3.2855986000
0.5728003125 -1.8229984375 -2.4065722640
1.6631996875 -1.4682484375 -3.2953385040
-1.7088200000 -0.8233828125 -2.4083596400
-0.6026987500 0.3718021875 -2.4440812560
-0.5667131250 0.9109146875 -3.2679709280
0.5558287500 -0.1851821875 -3.2788506080
1.6980834375 -0.3419440625 -3.2382849440
-1.7019534375 1.4324240625 -2.4915891920
-1.6789350000 -0.2959609375 -3.2460561440
-0.6074287500 1.4909712500 -2.4927937280
-1.6908003125 0.2982990625 -2.4753214800
0.5272337500 1.4706806250 -2.4215965840
0.5467046875 0.9181171875 -3.2501878320
1.6296731250 0.8010631250 -3.1897797040
1.6368218750 0.2154971875 -2.4312976320
-1.6902493750 2.0115668750 -3.2908312080
0.5289134375 2.0484528125 -3.2111375520
1.0449000000 1.9843559375 -4.0890629680
1.7118031250 1.3860109375 -2.4455577840
2.1659906250 -0.9737484375 -4.8624398400
2.1440471875 0.6726678125 -4.0874310160
1.6204281250 1.9339518750 -3.2602903920
2.1678046875 1.7851450000 -4.0662933520
-1.6765028125 -1.9814265625 -2.4670840080
-0.5676537500 -1.8533806250 -2.4482647520
0.5560571875 -0.7426368750 -2.4681849280
0.4949837500 0.3560668750 -2.4348853360
1.6080790625 -0.9201596875 -2.4603619200
-0.5776781250 2.0976206250 -3.2195434000
2.2018418750 -2.0708934375 -4.8453950080
-1.7218678125 0.9586178125 -6.3531465239
0.5666056250 0.9096112500 -6.4705660791
1.6604315625 0.8035893750 -6.4309788480
6.6947103125 -2.0640806250 -4.0573305680
6.7179034375 1.8553021875 -4.8358234800
2.2542346875 -0.4122490625 -4.0657105120
2.2696475000 1.2344090625 -4.8847431840
6.6980025000 -1.5045565625 -4.8721797440
6.6898325000 -0.9615337500 -4.0244972480
6.6827643750 -0.4358721875 -4.9201928080
6.7075565625 0.0965753125 -4.0930003760
6.6815818750 0.6998250000 -4.8497339280
6.7085375000 1.2588653125 -4.0821336480
2.2622165625 -1.5264328125 -4.0228912000
2.7296937500 -2.2056850000 -5.7236247960
3.3861290625 -1.7116956250 -4.0667337200
4.4390646875 -1.8997265625 -4.0958368640
5.5434256250 -2.0493800000 -4.0538594320
2.7770609375 -0.4768834375 -6.4421740387
2.7805546875 -0.5007215625 -3.1816976560
2.7280946875 -1.0648950000 -5.6651115456
3.3195059375 -1.1636740625 -4.9174469840
3.2886265625 -0.6138250000 -4.0929356160
3.9195843750 -1.2170881250 -5.6444712384
4.4984450000 -1.3231637500 -4.8736951280
4.3949896875 -0.7687996875 -4.0666689600
5.0595815625 -1.3772496875 -5.6725887352
5.6026984375 -1.4732740625 -4.8358623360
5.5676668750 -0.8993046875 -4.0619155760
6.1467693750 -1.5277093750 -5.6932847360
2.8134362500 0.0717025000 -5.6277968336
3.3894481250 -0.0382700000 -4.8735656080
3.2525737500 0.5092678125 -4.0604131440
3.9535543750 -0.0946537500 -5.6839333920
4.4790681250 -0.1794846875 -4.8123285520
4.4708040625 0.3980859375 -4.0349365600
5.0049581250 -0.3065496875 -5.7119964904
5.5533425000 -0.3280496875 -4.8424030960
6.1695459375 0.1660337500 -6.4724645962
5.6225187500 0.2319715625 -4.0402468800
6.0810734375 -0.3997521875 -5.6848037664
2.8419371875 1.1952253125 -5.6934401600
3.3590256250 1.0988784375 -4.8047645840
3.3674509375 1.6794590625 -4.0416456960
3.8761678125 0.9826978125 -5.7401411864
4.4094081250 0.9478275000 -4.8631522000
5.0352059375 1.4146731250 -6.4303515826
4.5009040625 1.4972196875 -4.0386926400
4.9655728125 0.8216090625 -5.7008461136
5.5300956250 0.7624706250 -4.9176930720
5.5678281250 1.2936684375 -4.0552064400
6.1394728125 0.7329887500 -5.6658135440
2.8334984375 -1.6337312500 -3.2392304400
2.7424459375 -2.2101328125 -2.4723295680
3.9179987500 -1.7599362500 -3.1906474880
4.9898946875 -1.9214012500 -3.2478953280
6.1284540625 -2.1016115625 -3.2766228640
2.8152368750 0.0996390625 -2.4418664640
2.7312525000 -1.0782115625 -2.4241351760
3.8480028125 -0.6378243750 -3.2500842160
3.9329009375 -1.1891515625 -2.4138642400
4.9814425000 -0.8413621875 -3.2924631600
5.0547440625 -1.3770884375 -2.4079063200
6.1098028125 -0.9578787500 -3.2412509520
6.1370675000 -1.5533481250 -2.4684957760
2.7677621875 1.7283043750 -3.3158544720
2.7200321875 0.6527534375 -3.2552261600
3.8676215625 0.4364634375 -3.3219289600
3.9242875000 -0.0865106250 -2.4197703520
5.0414409375 0.2349546875 -3.2495531840
4.9892765625 -0.3103659375 -2.4304946080
6.1691293750 0.1757221875 -3.2179503040
6.1217353125 -0.4180809375 -2.4513732320
3.9150962500 1.5237453125 -3.2416524640
3.8773906250 0.9656053125 -2.4365302400
5.0420993750 1.4247378125 -3.1956858160
4.9835925000 0.8192843750 -2.4899183840
6.1662940625 1.2884950000 -3.2675564640
6.1090234375 0.7411453125 -2.4285000000
3.8549231250 2.1062878125 -5.6836588096
4.4373043750 2.0264421875 -4.9268371840
5.0422740625 1.9890725000 -5.6429998912
5.6124406250 1.8452375000 -4.8654447040
6.1759959375 1.8577075000 -5.6716432392
3.8785059375 2.1030628125 -2.4669803920
5.0486031250 1.9961675000 -2.4261556880
6.1820293750 1.8246781250 -2.4248475360
2.8191740625 1.1925109375 -2.4206510880
3.3025881250 2.2305846875 -4.8667399040
2.8217137500 -1.6160609375 -6.4638568783
3.9114278125 -1.7847150000 -6.4500419902
4.9742534375 -1.9568090625 -6.4563439153
3.8339471875 -0.6578328125 -6.4626840488
2.6932781250 0.6228818750 -6.4548101394
6.1001412500 1.2909406250 -6.4733496063
-6.1384327500 6.3817375000 -5.6970939192
-5.5768850000 6.4220768750 -4.8975268080
-4.9913325000 6.4516393750 -5.6884808392
-4.5000843750 6.7046675000 -4.8250603680
-3.9064559375 6.7093303125 -5.6264964528
-6.1203673750 6.3092153125 -2.4873409360
-5.0657225000 6.5047981250 -2.4714617840
-3.9449812500 6.7015500000 -2.3840487360
-3.9294609375 2.7478478125 -3.2074203280
-5.5543409063 2.4873887500 -4.0190703600
-4.4420612500 2.6460721875 -4.0953964960
-3.3173693750 2.2892796875 -4.8979412720
-2.8186903125 2.8974609375 -6.4406541215
-2.7342625000 2.3030262500 -5.6763266824
-6.1423323125 3.0021390625 -5.6817445040
-5.5722571250 3.0183984375 -4.8776454880
-5.5933150313 3.5719293750 -4.0505696240
-5.0118515625 3.1408946875 -5.6991390400
-4.4854912500 3.2522512500 -4.8419756800
-4.4428406250 3.7922371875 -4.0048490640
-3.9280096875 3.3173425000 -5.6633656160
-3.3673837500 3.4209321875 -4.8502131520
-3.2884115625 3.9892309375 -4.0702048560
-2.8205446875 3.4683800000 -5.6579853552
-6.6759194469 4.6348893750 -4.0658788880
-6.1340494375 4.1093487500 -5.6527100056
-5.5646353750 4.1310234375 -4.8484128240
-5.5818837500 4.7328218750 -4.1258725520
-5.0164203125 4.2929184375 -5.6486884096
-4.4285834375 4.3399228125 -4.8649784320
-3.9008928125 5.0623765625 -6.4276677987
-4.4749965625 4.8824081250 -4.0491578560
-3.8865281250 4.4516153125 -5.7087649664
-3.3637153125 4.5699862500 -4.8605618000
-2.8170375000 5.1829781250 -6.4443603363
-3.3281462500 5.0914687500 -3.9980492640
-2.7765368750 4.5798090625 -5.6791282000
-6.7070086753 5.1971950000 -4.8937966320
-6.6969031781 5.7412525000 -4.0450520720
-6.1123720625 5.2038734375 -5.6809000336
-5.5857094063 5.3335318750 -4.8488790960
-5.5629771875 5.8914031250 -4.0333564160
-5.0093925000 5.3608234375 -5.6444012976
-4.4368609375 5.4647893750 -4.8436723920
-4.4512121875 6.0460687500 -4.1299783360
-3.9087134375 5.6413043750 -5.6509537144
-3.2978984375 5.6313606250 -4.9065802560
-3.3556125000 6.1575328125 -4.0801131360
-2.7194946875 5.7542600000 -5.6749978072
-6.1421535938 2.4125284375 -3.2695510720
-4.9777606250 2.5810212500 -3.2412380000
-3.3829175000 2.8325578125 -4.0681584400
-2.8438318750 2.9090709375 -3.2436988800
-6.1661422188 3.5787018750 -3.2360831040
-6.1408246250 2.9782740625 -2.4784040560
-5.0320750000 3.7231684375 -3.2676471280
-5.0746181250 3.1622737500 -2.4612038000
-3.8409750000 3.8545065625 -3.2633859200
-3.9357765625 3.3090784375 -2.4088906720
-2.7544859375 4.0526425000 -3.2102827200
-2.7535050000 3.4596725000 -2.4264406320
-6.1078328750 4.6322421875 -3.2353577920
-6.1399041563 4.1074943750 -2.3669520960
-5.0637875000 4.8509106250 -3.2482838880
-4.9754090625 4.2789837500 -2.4548314160
-3.9237768750 5.0267268750 -3.2553945360
-3.9250937500 4.4311500000 -2.5052146960
-2.7289143750 5.1617200000 -3.2626735600
-2.8378790625 4.6130400000 -2.4131777840
-6.1355759375 5.7256381250 -3.2563788880
-6.1473082188 5.2061578125 -2.4057562880
-4.9712434375 5.9207909375 -3.2508224800
-5.0113006250 5.3916625000 -2.3911205280
-3.9294206250 6.1650846875 -3.2531149840
-3.8553665625 5.5876350000 -2.4607504800
-2.8250193750 6.3392884375 -3.2507965760
-2.7890606250 5.7380543750 -2.4937651280
-2.2693518750 3.0077559375 -4.0124648400
-2.2573656250 6.4137993750 -4.0157028400
-2.7805143750 2.3295518750 -2.4576549520
-6.6781166125 6.2900131250 -4.8693044000
-6.6867279000 2.9555646875 -4.8635666640
-6.6975653781 3.5255431250 -4.0701660000
-6.1595376875 2.4360843750 -6.4633511157
-5.0162053125 2.5766943750 -6.4729858753
-5.0267134375 3.7405565625 -6.4573006795
-6.1580125313 5.7871818750 -6.4424460307
-2.7866956250 6.3441259375 -6.4512776110
-2.2236643750 3.5254759375 -4.9116574400
1.1432356250 2.5471856250 -4.8738894080
-2.2223743750 2.4686568750 -4.8174316400
-1.6659275000 2.3393075000 -5.6717857112
-1.1393656250 2.6227043750 -4.8171078400
-0.5769256250 4.2837943750 -6.4756007585
-1.0970643750 3.1724459375 -4.0606851360
-0.5923653125 2.6494987500 -5.6596626392
-0.0020559375 2.6144940625 -4.9184054320
0.0111531250 3.1647731250 -4.0756835520
0.5879175000 2.6456287500 -5.6700656856
1.7119240625 2.4691003125 -5.6861935160
1.1245306250 3.6738662500 -4.8170042240
-1.6469671875 4.2006565625 -6.4230497631
-2.2068137500 4.0847446875 -4.0829107680
-1.6472762500 3.5773715625 -5.6868488872
-1.1126787500 3.7399653125 -4.8818289840
-1.1270971875 4.2744687500 -4.0415420800
-0.4893803125 3.7468587500 -5.6477442088
0.0058856250 4.3375309375 -4.0545070320
0.0295893750 3.7607934375 -4.8268088880
0.5923115625 3.7447759375 -5.6903316800
1.1893396875 4.2453496875 -4.0453240640
1.6394421875 3.5608971875 -5.7138304936
-2.2394668750 4.6666153125 -4.8646287280
-2.1919250000 5.2385556250 -4.0899566560
-1.6652690625 4.7795575000 -5.6499512296
-1.0796225000 4.8192518750 -4.8847302320
-1.0746775000 5.3867175000 -4.0863689520
-0.5118881250 4.8590940625 -5.6813572392
0.0224271875 4.9254081250 -4.8205789760
0.0455665625 5.4884796875 -4.0139931760
0.5502521875 4.8169675000 -5.6995768176
1.0849975000 4.7980206250 -4.8700685680
1.6987284375 5.2787875000 -6.4298373882
1.1640771875 5.3543868750 -4.0506991440
1.6690718750 4.7034878125 -5.6561150864
-2.1973537500 5.8481612500 -4.8211100080
-1.6341209375 5.8418725000 -5.6817963120
-1.1068871875 5.9885831250 -4.8245293360
-1.0816918750 6.5538450000 -4.0339133520
-0.5674925000 5.9574484375 -5.6928676816
-0.0089493750 6.0070596875 -4.8980319360
0.5831471875 6.5537778125 -6.4416035031
0.0295087500 6.5584675000 -4.0607369440
0.5779200000 5.9908675000 -5.6486650960
1.1632037500 5.8816206250 -4.9157243680
1.0862203125 6.4284596875 -4.0865502800
1.7721778125 5.8506471875 -5.6454672472
-1.6625412500 3.0760050000 -3.2691625120
-1.7104459375 2.5297975000 -2.4192004640
-0.5479275000 3.2088750000 -3.2460431920
-0.5566081250 2.6577359375 -2.4258836960
1.1170593750 3.0937693750 -4.0377082880
0.5957515625 2.6311028125 -2.4669285840
1.6962156250 2.9997875000 -3.3073968160
-1.6825362500 4.2321406250 -3.2164090160
-1.6512403125 3.6309200000 -2.4596236560
-0.5449040625 4.3142034375 -3.2619741520
-0.5528993750 3.7668671875 -2.4253656160
0.5959531250 4.2951356250 -3.2913363360
0.5807150000 3.7558215625 -2.4203013840
1.7288553125 4.1071450000 -3.2227814000
1.6696093750 3.5414396875 -2.4349760000
-1.6455159375 5.3308443750 -3.2572855280
-1.6355453125 4.7818821875 -2.4076084240
-0.5565678125 5.4376725000 -3.2407328720
-0.5043093750 4.8573203125 -2.4420218880
0.6042978125 5.4014315625 -3.2266281440
0.5536518750 4.8234175000 -2.4307018400
1.7111581250 5.2803328125 -3.1872022560
1.6794590625 4.6897143750 -2.4497024240
-1.6539412500 6.4041915625 -3.2779051120
-1.7005021875 5.8742971875 -2.4077249920
-0.5135678125 6.5532134375 -3.2286745600
-0.5556540625 5.9783303125 -2.4290828400
0.5784037500 6.5828162500 -3.1997656960
0.5760387500 5.9766103125 -2.4590408160
1.6510656250 6.4039093750 -3.2690977520
1.7371328125 5.8628215625 -2.4173094720
2.2181818750 6.2924990625 -4.0624336560
0.5447696875 3.2164000000 -3.2367566080
1.6981103125 2.4860584375 -2.4179311680
2.2299934375 2.3782762500 -4.7935092960
2.1951231250 3.5140137500 -4.8717264240
2.2107240625 5.1400721875 -4.0917310800
-1.7110103125 3.0072721875 -6.4134523311
1.7781171875 4.1374465625 -6.4687067677
0.6202615625 5.4225015625 -6.4447599055
-0.5172362500 6.5455003125 -6.4740026721
3.3047650000 6.6939175000 -4.8697836240
2.7445287500 2.2763796875 -5.7056979328
6.7146112500 4.0884131250 -4.8825154400
2.3024081250 2.9700503125 -4.0510099920
3.8813278125 6.6240425000 -5.6732311544
4.4335821875 6.5094475000 -4.8870486400
5.0335531250 6.4388200000 -5.6477895408
5.5920559375 6.3670637500 -4.8594479280
6.1655953125 6.3435078125 -5.6353297168
3.8563206250 6.6077025000 -2.4560100480
5.0278287500 6.4539909375 -2.3710708320
6.2258087500 6.3138781250 -2.3874680640
6.7170703125 2.4163043750 -4.0243936320
3.9410171875 2.7004940625 -6.4071207459
3.4125740625 2.7884425000 -4.0467617360
4.4530531250 2.5552212500 -4.0775486400
5.5570781250 2.4259928125 -4.0983366000
2.8455115625 3.9747453125 -6.4135291365
2.3062915625 4.0720596875 -4.0423710080
2.7592293750 3.3940034375 -5.6539417408
3.3637153125 3.3091590625 -4.9358776800
3.8882750000 3.8242856250 -6.4666926539
3.3426184375 3.8539421875 -4.0827294400
3.9848234375 3.2776750000 -5.6340241552
4.5401953125 3.1389462500 -4.8608078880