ITEM: TIMESTEP
101000
# source: voids-relax.101000.cfg
ITEM: NUMBER OF ATOMS
2298
ITEM: BOX BOUNDS pp pp pp
-6.7187500000 6.7187500000
-6.7187500000 6.7187500000
-6.4760000000 6.4760000000
ITEM: ATOMS x y z
-6.7066561559 -5.4663481250 -4.8184937040
-6.2023576250 -6.4778277188 -5.6776063400
-5.6794897188 -6.3707913125 -4.8185714160
-5.6338358125 -5.8139708750 -4.0098355840
-5.1170403125 -6.3404884063 -5.6630314544
-4.5425200000 -6.2654681875 -4.8305002080
-3.8941068750 -5.1705484375 -5.6682316824
-4.4594225000 -5.6942508125 -4.0583667280
-4.0091050000 -6.3132586563 -5.6501001776
-3.3991231250 -6.3427741250 -4.9038862400
-2.8312275000 -5.8477285625 -6.4368282302
-3.3489071875 -5.8104892188 -4.0428113760
-2.8080881250 -6.4172635625 -5.6408135936
-6.6912846906 -4.8799356250 -4.1119491520
-6.1765576250 -5.3180384375 -5.6546165400
-5.5789140625 -5.2919428125 -4.9036142480
-5.0458484375 -4.6152706250 -6.4144431591
-5.5956679375 -4.7515537500 -4.0523440480
-5.0061540625 -5.2275100000 -5.6987349376
-4.4873725000 -5.1377475000 -4.8538526640
-4.4843490625 -4.5920371875 -3.9994221760
-3.3540134375 -4.6882765625 -4.0640267520
-2.7566628125 -5.2818781250 -5.6350434776
-6.1734468438 -3.6833531250 -6.4697606201
-6.6739691281 -3.7527578125 -4.0142133600
-6.1540713125 -4.2274643750 -5.6422085240
-5.0191212500 -4.0368668750 -5.6442264456
-5.5545021563 -3.6128196875 -4.0997613200
-4.4227246875 -4.0783215625 -4.8891986720
-3.8516846875 -4.0546312500 -5.6686124712
-4.4674312500 -3.5246428125 -4.0699846720
-3.3125856250 -4.0934656250 -4.8019151440
-3.3630971875 -5.2469406250 -4.8567409600
-3.9219493750 -3.4821937500 -3.2538662000
-2.7909150000 -4.2313478125 -5.7016582040
-6.6894347500 -3.2143843750 -4.8939779600
-6.0883619375 -3.1178762500 -5.6724669864
-6.7164160944 -2.6919746875 -4.0237460320
-5.5790040938 -3.0019778125 -4.8199572800
-5.5849233125 -4.1911293750 -4.8562487840
-5.5722087500 -2.4574768750 -4.0019348640
-5.0007521875 -2.9702115625 -5.6496442672
-4.4490218750 -2.9236103125 -4.8127948240
-3.8692071875 -2.3763546875 -6.4548682939
-4.4025818750 -2.3438493750 -4.0606851360
-3.9263434375 -2.9503509375 -5.6817704080
-3.3480203125 -3.0112362500 -4.8746147200
-2.7848950000 -2.4841368750 -6.4455261458
-3.2992153125 -2.4394706250 -4.0478497040
-2.7840753125 -3.0588990625 -5.6675180272
-6.2096138750 -5.8978705938 -3.2289336000
-6.1813534688 -6.4982379375 -2.5090614400
-5.0321421875 -5.8135140000 -3.2792780240
-5.0869806250 -6.3224700625 -2.3931410400
-3.9162384375 -5.7512983750 -3.2327285360
-3.9234543750 -6.2974870625 -2.3860562960
-2.8175884375 -5.8610639375 -3.1747424320
-2.8025115625 -6.4710283438 -2.4508810560
-6.1760322188 -4.7672487500 -3.2188698960
-6.0913396875 -5.3420243750 -2.4303262320
-5.0582646875 -4.6392700000 -3.2180409680
-5.0090834375 -5.2390528125 -2.4768368640
-3.8890140625 -4.6249321875 -3.2292962560
-3.9285606250 -5.1815806250 -2.4240315600
-2.7800440625 -4.1965984375 -2.4176591760
-6.0703812188 -3.7012518750 -3.2438672560
-6.1734119063 -4.2343175000 -2.3684027200
-5.0174550000 -3.4965046875 -3.2078088880
-4.9721706250 -4.0808478125 -2.4324633120
-3.8604862500 -4.0485843750 -2.4560618560
-3.3216693750 -3.5297625000 -3.9997071200
-6.1524225313 -2.5505450000 -3.2443205760
-6.1748779375 -3.1364871875 -2.4742723680
-4.9705446875 -2.4405590625 -3.2718047200
-5.0472056250 -2.9404743750 -2.3772359840
-3.8643159375 -2.3849412500 -3.2241284080
-3.8836121875 -2.9500284375 -2.4069219680
-2.7633143750 -2.5043200000 -3.1671007520
-2.7302850000 -3.6691631250 -3.2800421920
-2.3047731250 -5.9990818438 -4.0591438480
-2.7835915625 -4.7559746875 -3.2701727680
-2.2486312500 -4.2703165625 -4.8411726560
-2.7765503125 -5.2793787500 -2.4194076960
-2.8099290625 -3.1215178125 -2.4509458160
-3.8974125000 -5.7454570938 -6.4370664175
-2.2600262500 -2.6271790625 -4.0831050480
-6.1786646250 -5.8866731250 -6.4717736588
-6.1302399063 -4.7868809375 -6.4739013615
-2.7326768750 -3.6299121875 -6.4377412167
-6.1532449063 -2.5521843750 -6.4600089427
-1.6167865625 -4.9432128125 -3.2854561280
-1.6908675000 -5.5083604688 -5.6927990360
-2.1959025000 -4.8447159375 -4.0336154560
-2.2317268750 -6.5412957188 -4.8894059040
-1.6289878125 -6.5892896313 -5.6373113728
-1.1689281250 -6.1442794063 -4.0181637200
0.5891806250 -6.3211612500 -6.3912055874
0.0501084375 -6.2497852813 -3.9908090960
1.1557862500 -6.4725776875 -4.0709690240
-2.2080634375 -5.4008107500 -4.8149448560
-1.1368259375 -5.5714240000 -4.8151650400
-0.6246018750 -5.6549515000 -5.6699866784
-0.4489871875 -4.5326165625 -5.5927111608
-1.0112525000 -5.0033590625 -4.0488988160
-0.5119553125 -5.0635590625 -6.4504164325
-0.0534946875 -5.7695868125 -4.8696929600
0.0236500000 -5.1636012500 -4.0955001120
0.5413968750 -5.6972339375 -5.6342741288
1.1068737500 -5.9460010313 -4.8751975600
1.1034068750 -5.3497912500 -4.0700105760
1.7254018750 -5.9943746875 -5.6225512736
-1.6371309375 -3.7787862500 -6.4403233274
-2.1384571875 -3.7172693750 -4.0393272880
-1.6716787500 -4.3625650000 -5.6723931600
-1.1181612500 -4.4845103125 -4.9283914240
-1.0885046875 -3.9320946875 -4.1149669680
0.1554450000 -4.6342040625 -4.9855486000
1.1442568750 -4.2847753125 -3.9899542640
-0.0359318750 -4.0891790625 -4.0819523200
0.5530337500 -5.1651196875 -6.3540448746
1.0875775000 -4.7929009375 -4.9376132480
1.7626775000 -4.2940471875 -6.4705031971
1.1291800000 -3.7178337500 -4.8283372240
1.5878959375 -4.8516362500 -5.6962300208
-2.2146075000 -3.1907881250 -4.9013476480
-1.6069503125 -3.2290043750 -5.6119940984
-1.0073959375 -3.3415703125 -4.8658721200
-0.4909121875 -2.8939537500 -6.4708563334
-1.1563775000 -2.7873675000 -4.0580688320
-0.4900387500 -3.4469337500 -5.6962662864
0.6463706250 -3.0419006250 -6.4182941773
0.0774537500 -3.4722365625 -4.7956593280
0.5937628125 -3.7087903125 -5.7120262800
1.1872300000 -3.1632815625 -4.0507768560
1.7393096875 -3.1902103125 -3.2240895520
1.6926681250 -3.7196478125 -5.6661826760
-1.7281028125 -6.0080365938 -3.2356297840
-1.6622590625 -6.5769991563 -2.4404028880
-0.5683928125 -6.2380462813 -3.2997292320
0.6115809375 -6.4170405000 -3.2157873200
1.6960812500 -6.5230623750 -3.2153210480
-1.6515896875 -5.4603912813 -2.4022203920
-0.4981684375 -5.1106843750 -3.1910230960
-0.6006159375 -5.6949159688 -2.4445993360
0.5628565625 -5.2713565625 -3.2005169120
0.5187681250 -5.8370739688 -2.4278524000
1.6507565625 -5.4602864688 -3.2429865200
1.7249046875 -5.9770806250 -2.3698015360
-1.5979740625 -3.8197706250 -3.1935616880
-1.7263290625 -4.4003109375 -2.4374886880
-0.5623459375 -3.9640490625 -3.1924607680
-0.5561512500 -4.5359490625 -2.4117012560
0.5216840625 -4.1548884375 -3.2951053680
0.6327718750 -4.6892843750 -2.4187341920
1.7293390625 -4.3041925000 -3.2478435200
1.7008918750 -4.8798550000 -2.4558157680
-1.6686015625 -3.2444171875 -2.4114681200
0.0459696875 -2.9340781250 -3.9682855680
-0.4815193750 -3.3893406250 -2.3897735200
0.6334840625 -3.0400328125 -3.2348656160
0.5871381250 -3.6218228125 -2.4594423280
2.2370078125 -6.6298594594 -4.0829755280
-0.5856465625 -2.2978259375 -5.7042602608
-0.0266600000 -2.4155518750 -4.8778397680
0.5644153125 -2.5140487500 -5.6257271040
1.1433431250 -2.5814378125 -4.8563653520
1.7007709375 -2.6661881250 -5.6413135408
-1.6995481250 -2.6818293750 -3.2262654880
-0.5831068750 -2.8886728125 -3.3019440240
0.5331193750 -2.4824303125 -2.4348853360
1.6643015625 -3.7641259375 -2.4284222880
-0.5491368750 -2.3348865625 -2.4725886080
1.7165196875 -2.6348250000 -2.3687524240
0.5952006250 -4.2379187500 -6.3983778869
2.2047712500 -5.4402390625 -4.0790122160
2.1895062500 -4.8896240625 -4.8773475920
-1.0942828125 -6.7094808394 -4.7997651120
-0.5405771875 -6.1934001875 -6.4687886632
-1.5927603125 -4.9347337500 -6.4557789490
1.6701871875 -5.4388765000 -6.4651924238
1.6589534375 -6.5269364063 -6.4604666664
6.6846590625 -6.0579407813 -4.0499608800
2.2962671875 -3.2068862500 -4.0794914400
6.1607712500 -5.6385994063 -5.6502128600
6.6853846875 -4.2842378125 -4.8523113760
3.9429925000 -6.4142199688 -6.4643534580
3.3867068750 -6.5141130000 -4.0087864720
4.5175531250 -6.2852266875 -4.1002794000
5.5733912500 -6.2285204375 -4.1018595440
2.2686396875 -6.0369769375 -4.8241407760
3.3835221875 -5.9787240313 -4.8754695520
3.9051793750 -4.6586065625 -5.7639314200
3.3286568750 -5.4240912188 -4.0599986800
3.9225137500 -5.8455395938 -5.7043509248
4.4814196875 -5.7181520938 -4.9230811040
5.0007387500 -5.1465087500 -6.4412787965
4.4760850000 -5.2325625000 -3.9835171200
5.0812562500 -5.7265169375 -5.6889587680
5.5930234375 -5.6043593125 -4.8152427520
6.1611609375 -6.1776326250 -6.3699549819
5.6383481250 -5.0431743750 -4.0393272880
6.6137762500 -6.5836198125 -5.0245859280
2.2697146875 -4.3288637500 -4.0629646880
2.7599684375 -4.8953887500 -5.6103453088
3.3918937500 -4.8758640625 -4.8603416160
3.3342065625 -4.2826253125 -4.1187360000
3.9755112500 -3.7684796875 -5.8100793960
4.4760581250 -4.6973468750 -4.8377015200
4.4833546875 -4.1023478125 -4.1189691360
5.0216743750 -4.5538746875 -5.6919947168
5.5771537500 -4.5266906250 -4.8940168160
6.1651921875 -3.8932468750 -6.4084582990
5.6088931250 -3.9698809375 -4.0239014560
2.2424768750 -3.7736665625 -4.8621030880
2.7890606250 -2.6558681250 -5.6887606024
2.8116625000 -3.7963490625 -5.6304934400
3.4146165625 -3.7016684375 -4.9011922240
3.9707543750 -3.1258312500 -6.4083570143
3.4013806250 -3.1869315625 -4.0094470240
4.4737065625 -3.5092300000 -4.8753659360
4.5210871875 -2.9492625000 -4.0550769200
5.0833793750 -3.4724381250 -5.6250833896
5.6362250000 -3.4197093750 -4.8357069120
6.1650175000 -3.2997125000 -5.6819025184
5.6084765625 -2.8134362500 -4.1191504640
6.1663075000 -4.5186012500 -5.6768175632
2.7830809375 -6.5464705000 -3.2617410160
3.9784137500 -6.4724285313 -3.2645127440
5.0567596875 -6.2727540000 -3.2107748960
6.0931403125 -6.0294237188 -3.2357204480
6.2085281250 -6.6391418156 -2.4988034560
2.7481971875 -5.4366337813 -3.2633470640
2.8634640625 -5.9874745313 -2.4396646240
3.8793793750 -5.2839609375 -3.2591247120
3.9085253125 -5.8751437500 -2.5066653200
5.0801006250 -5.1465625000 -3.2673880880
4.9674540625 -5.6909881875 -2.4322690320
6.2266956250 -4.9896662500 -3.2302547040
6.1410718750 -5.5257714375 -2.3502569680
2.8384837500 -4.3371681250 -3.2224446480
2.8124821875 -4.8992318750 -2.4097584560
3.9082028125 -4.2059912500 -3.2677248400
3.9754440625 -4.7403065625 -2.4209360320
4.9974734375 -4.0011365625 -3.2643832240
5.0637471875 -4.5727812500 -2.4890894560
6.1786028125 -3.8566565625 -3.2537237280
6.1156212500 -4.4217975000 -2.4476560080
2.8171450000 -3.2074237500 -3.2241284080
2.8099021875 -3.7634943750 -2.4341988800
3.9677175000 -3.1086850000 -3.2338553600
3.9420921875 -3.6504581250 -2.4082560240
5.0703450000 -2.9335003125 -3.2236362320
5.1130225000 -3.4681515625 -2.3898641840
6.1121409375 -2.7108946875 -3.2490869120
6.2217506250 -3.2834128125 -2.4747515920
2.2883659375 -2.6165365625 -4.8191413040
3.3904425000 -2.6700446875 -4.8986665840
3.9118712500 -2.5111328125 -5.7147604472
4.4920621875 -2.4432600000 -4.9418744560
5.1041537500 -2.3490228125 -5.7138602832
2.8427031250 -2.6223281250 -2.4346003920
3.9326993750 -2.5210631250 -2.4886620400
5.0322228125 -2.3597325000 -2.4108075680
2.8049168750 -5.9907653750 -5.6844022544
2.8912125000 -3.2408562500 -6.4476992324
2.8049840625 -6.5820019375 -6.4714807104
2.7983325000 -5.4480032500 -6.4735631978
3.9026262500 -5.2275368750 -6.4471476067
5.0530106250 -2.9241209375 -6.4724302863
-6.7046116000 -1.5399106250 -4.0972227280
-6.1275846563 -1.9814803125 -5.6643823480
-5.5557437813 -1.9107050000 -4.8476227520
-5.0200350000 -1.2624665625 -6.4317265670
-5.5884990313 -1.3482650000 -4.0438216320
-5.0184896875 -1.8730396875 -5.7001143256
-4.4838653125 -1.7923475000 -4.8713637680
-3.9351046875 -1.2596312500 -6.4544459292
-4.4627818750 -1.2432643750 -4.0181896240
-3.8864340625 -1.8203109375 -5.6489824200
-3.3206212500 -1.9094553125 -4.8979283200
-3.3776365625 -1.3410490625 -4.0909151040
-2.7108946875 -1.9323393750 -5.6300530720
-6.1512978125 -0.9195953125 -5.6512036880
-5.5972683438 -0.7964943750 -4.8621808000
-5.6124809375 -0.2166796875 -4.0984661200
-5.0240259375 -0.6898946875 -5.6502607824
-4.4448293750 -0.7147271875 -4.8849245120
-4.5281687500 -0.1665981250 -4.0666171520
-3.8705643750 -0.6786206250 -5.6698882432
-3.3283075000 -0.7490196875 -4.8099712880
-2.7301640625 -0.2833565625 -6.4695238705
-3.3498746875 -0.1832875000 -3.9986191520
-2.8080881250 -0.8656706250 -5.7011271720
-6.1429840313 0.8034550000 -6.4388640256
-6.7027487594 0.6786743750 -4.0367239360
-6.1904439375 0.2245943750 -5.6652345896
-5.6125709688 0.3641428125 -4.8796271440
-5.6118937188 0.9028521875 -4.0374362960
-5.0295353125 0.4032593750 -5.6427162424
-4.4655903125 0.4301478125 -4.8099583360
-4.4670953125 1.0200675000 -4.0688060400
-3.9552340625 0.4124640625 -5.6989538264
-3.3936271875 0.3434625000 -4.8403696320
-3.3161331250 0.9309365625 -4.0498831680
-2.8553881250 0.2825771875 -5.6818144448
-6.1943300625 1.3923937500 -5.6856262184
-5.6474453125 1.4621075000 -4.8550442480
-5.5778860938 2.0035715625 -4.0018960080
-5.0921406250 1.5205068750 -5.6938118824
-4.5561725000 1.5751706250 -4.8615720560
-3.9330084375 2.0960753125 -6.4358392155
-4.4399112500 2.1386990625 -4.0420342560
-3.9674353125 1.5161800000 -5.6355239968
-3.3851615625 1.4576462500 -4.9084323920
-2.7664318750 1.4134637500 -5.6115472544
-6.1777065313 -1.4111793750 -3.2486335920
-6.1040206563 -1.9837378125 -2.4618254960
-5.0398150000 -1.2948240625 -3.2448645600
-5.0461843750 -1.8698012500 -2.4563597520
-3.8814487500 -1.2629503125 -3.2102309120
-3.9673681250 -1.8333318750 -2.4144470800
-2.8226946875 -1.3972581250 -3.2387382640
-2.7563268750 -1.9337503125 -2.3895403840
-6.1387754063 -0.3499528125 -3.2460172880
-6.1300517813 -0.8836500000 -2.3716018640
-5.0773459375 -0.1393737500 -3.2110598400
-4.9839015625 -0.7291456250 -2.4678870320
-3.9632696875 -0.1350334375 -3.2788894640
-3.8708465625 -0.6796150000 -2.4486403600
-2.7556684375 -0.3050312500 -3.2959990560
-2.7552384375 -0.8229125000 -2.4241610800
-6.1628150938 0.7879615625 -3.2181704880
-6.1838797188 0.2078512500 -2.4327741600
-5.0219162500 0.9216109375 -3.2660410800
-5.0289575000 0.4108784375 -2.3814194800
-3.9069934375 0.9685481250 -3.2702893360
-3.8865012500 0.4107709375 -2.4440035440
-6.1989686875 1.9592009375 -3.2683724400
-6.1587825000 1.3761612500 -2.4890376480
-5.0111393750 2.0707053125 -3.2460431920
-5.0878137500 1.4882971875 -2.4546630400
-2.8545550000 1.9670753125 -3.1920592560
-4.0067265625 1.4947068750 -2.4133073040
-2.7803128125 0.8585487500 -3.1912173760
-2.8062606250 1.4109375000 -2.3767308560
-2.2569625000 -0.8943731250 -4.8215762800
-2.2883659375 0.1814331250 -4.9087561920
-2.3150796875 1.8712256250 -4.0422026320
-3.3840596875 2.0253671875 -4.1116901120
-3.8874418750 2.0705978125 -3.1973307200
-2.8394781250 0.2507437500 -2.4687936720
-2.2566937500 -1.4717421875 -4.0315431360
-2.2529446875 0.7365900000 -4.0895162880
-6.6684176938 -2.1172662500 -4.8270290720
-6.1731834688 -0.3479371875 -6.4442242108
-2.7932665625 0.8667859375 -6.4408133016
-5.0059121875 2.0986418750 -6.4524364264
-1.0821890625 -2.1940346875 -4.8071736560
-2.1483068750 -0.3426562500 -4.0257665440
1.6525303125 -2.1094321875 -3.2148159200
-1.7233325000 0.6747775000 -3.1898962720
-2.1545284375 -2.0363859375 -4.8220425520
-1.6428553125 -2.1679121875 -5.7071938888
-1.0498987500 -1.6375071875 -3.9919747760
-0.4879693750 -1.7368506250 -3.2250609520
0.0581709375 -1.8579090625 -4.0747639600
1.6894565625 -2.1065700000 -6.4655037899
1.1044818750 -2.0298687500 -4.0721347040
-1.7197984375 -1.0235746875 -5.6894923904
-1.1661465625 -1.1236034375 -4.8991846640
-0.5525903125 -0.5996081250 -3.1792626800
-0.5451190625 -1.1504112500 -5.6140301528
0.0290115625 -1.2816284375 -4.8649266240
0.5970818750 -1.3947990625 -5.6379330688
-0.0262971875 -0.7221715625 -4.0749970960
1.1825268750 -1.4417631250 -4.8603934240
1.7101503125 -0.9169615625 -6.4174625294
1.1245843750 -0.9119493750 -4.0079057360
1.7128781250 -1.5394134375 -5.7007152984
-1.7235878125 0.6422721875 -6.4704559094
-1.6495875000 0.1159253125 -5.5943612456
-1.0823368750 -0.5642540625 -4.0972745360
-1.0632959375 0.0256790625 -4.8641883600
-0.4971068750 -0.0753978125 -5.6661723144
0.0660453125 -0.1298196875 -4.8254618800
-0.0142840625 0.4150709375 -3.9845791840
0.5818303125 -0.2383409375 -5.7074516336
1.1157425000 -0.3658493750 -4.8473378080
1.6970621875 -0.3450078125 -5.6441862944
1.1687668750 0.2013743750 -4.0461400400
-2.1839968750 1.3142681250 -4.8575569360
-1.6465237500 1.2097915625 -5.6887450600
-1.1830509375 0.5829187500 -4.0545847440
-1.0816650000 1.1519028125 -4.8319249280
-0.5592821875 1.0794075000 -5.7006479480
-0.0203846875 0.9413371875 -4.8503038160
0.0144453125 1.5127534375 -4.0508157120
0.5778796875 0.9011053125 -5.6235965000
1.1175834375 0.7856637500 -4.8075881200
1.6631996875 0.7110990625 -5.6649198560
1.1108512500 1.9718053125 -4.8407711440
-1.6756965625 -1.6002718750 -3.2944448160
-0.5827440625 -1.1882781250 -2.4135533920
0.5896106250 -1.8802556250 -3.1763355280
1.7379390625 -1.5128206250 -2.4633149760
-1.7031225000 -1.0547228125 -2.4591962400
-0.4841665625 -0.0347225000 -2.3779742480
-0.6282837500 0.4806862500 -3.2649919680
0.5246000000 -0.7973275000 -3.2564047920
1.7020878125 -0.9490100000 -3.2447479920
-1.6050556250 1.2402812500 -2.4022203920
-1.6060231250 -0.4680281250 -3.2002708240
-0.5363981250 1.6430165625 -3.2518327360
-1.7009993750 0.0997062500 -2.4061059920
-0.5400665625 1.0540375000 -2.4860457360
0.5926340625 0.3268403125 -3.2772704640
1.7428840625 0.1742843750 -3.2400075600
1.6646375000 -0.3933021875 -2.4401049920
-1.7449400000 1.7699875000 -3.2672715200
0.5915456250 1.4528490625 -3.2333113760
1.1156753125 1.3864946875 -4.0787661280
1.6299553125 0.7246978125 -2.3910946240
2.2308937500 0.7167831250 -4.8362897520
1.6771343750 1.2371234375 -3.2567026880
-0.5909946875 2.2157631250 -5.6256701152
-0.0356228125 2.0927696875 -4.8254748320
0.5229337500 1.9628156250 -5.6322885872
1.6427881250 1.8342053125 -5.6789870232
-0.6387650000 2.1954590625 -2.4311551600
0.5197625000 1.9903490625 -2.3714464400
2.2121350000 1.8010012500 -4.8773605440
-1.5914837500 -2.1269815625 -2.4110795600
0.6199256250 -1.3196296875 -2.3723271760
0.6065418750 -0.2294050000 -2.4593905200
0.5098053125 0.8808953125 -2.4508292480
-1.1336009375 1.6988896875 -3.9781549920
1.6648121875 1.8074781250 -2.4413354320
0.5895568750 -0.8227781250 -6.4526466374
2.2140565625 -2.0664321875 -4.0078798320
-1.1798393750 2.2239868750 -4.8490992800
-1.6389853125 -0.4276081250 -6.4268741002
0.5762403125 -1.9390312500 -6.4654105484
-0.5654903125 0.4961662500 -6.4457162812
0.5750981250 0.3606221875 -6.4611260527
-1.6856268750 1.8004234375 -6.4512469147
-0.5561109375 1.6723103125 -6.4617310406
1.6652690625 1.2792096875 -6.4638197061
-0.4821912500 -1.7214646875 -6.4343450728
6.6985668750 -0.9367012500 -4.8444365600
6.6918750000 1.2454412500 -4.8405768640
2.2916984375 0.1204134375 -4.0960959040
2.2535493750 1.2727731250 -4.0168944240
6.7113325000 -0.3752287500 -4.0645318800
6.6743256250 0.1478662500 -4.9271091760
6.6913375000 1.8161453125 -4.0514892160
2.2607921875 -0.4494709375 -4.8843157680
3.4025362500 -2.1047962500 -4.0662285920
4.5218665625 -1.9031128125 -4.0193164480
5.6135559375 -2.2285287500 -4.8644344480
5.6181112500 -1.6563465625 -4.0404282080
6.2096300000 -2.1919653125 -5.6456602320
2.2704671875 -1.5334606250 -4.8679314880
2.8682612500 -0.9798759375 -3.2471052560
2.8540578125 -1.5606581250 -5.6655195336
3.3742368750 -1.5233825000 -4.7848185040
3.3777709375 -0.8818090625 -4.1026625680
3.8907475000 -1.3857690625 -5.6424753352
4.4919143750 -1.3983331250 -4.8610410240
4.4947496875 -0.7899100000 -4.0847888080
5.0334725000 -1.1053015625 -5.6676281192
5.6086915625 -1.1476834375 -4.8893670480
6.1877268750 -0.4793425000 -6.4400987398
5.6269262500 -0.5791159375 -4.0257276880
6.1983693750 -1.0997653125 -5.6875573616
2.2699431250 -0.9707921875 -4.0273984960
2.8584384375 0.0966156250 -6.4292188007
2.8862809375 -0.4483825000 -5.6207276320
3.4496884375 -0.3232121875 -4.8916466000
3.3667656250 0.2294856250 -4.0646873040
4.1061640625 -0.3188181250 -5.6728646128
4.5650009375 -0.1867140625 -4.8803136000
4.4409459375 0.3591306250 -4.0348329440
6.0361518750 0.0723475000 -5.6523732536
5.5015409375 -0.0683162500 -4.9504357280
5.6355665625 0.4905090625 -4.0778206320
2.7552384375 0.6876775000 -5.6746442176
3.3594287500 0.7665421875 -4.9200632880
3.3751640625 1.3012471875 -4.0591438480
3.9518881250 0.8251968750 -5.6299183712
4.5289884375 0.9295121875 -4.8646805360
4.9766453125 1.5128743750 -6.4061056977
4.4399918750 1.4721721875 -4.0696479200
5.1074459375 0.8721743750 -5.6619564384
5.6192668750 1.1213996875 -4.7932373040
5.5242503125 1.6794321875 -4.0417363600
6.1745984375 1.1811965625 -5.6917123632
2.8165806250 -2.0818853125 -3.2762472560
3.9345134375 -1.9124787500 -3.2388030240
5.0834465625 -1.8042128125 -3.2152821920
6.1990681250 -1.6491709375 -3.2427922400
6.2034487500 -2.1790115625 -2.3740238880
2.8043928125 -0.4376996875 -2.4211950720
2.8033984375 -1.5413215625 -2.4261556880
3.9393912500 -0.8452456250 -3.2704965680
3.9410575000 -1.3868709375 -2.3987622080
5.0343862500 -0.6379990625 -3.2584123520
5.0529434375 -1.2067278125 -2.4813182560
6.1908309375 -0.5234443750 -3.2197894880
6.1522250000 -1.0889750000 -2.4280337280
2.8255971875 1.2430762500 -3.2214084880
2.8084778125 0.1273337500 -3.2076146080
3.8975334375 0.2440921875 -3.2186626640
3.9532721875 -0.3033918750 -2.4088647680
5.0379471875 0.4650315625 -3.3178361280
5.0580093750 -0.0729118750 -2.4397423360
6.1465543750 0.6699803125 -3.2383108480
6.1499271875 0.0725625000 -2.4952805120
3.9061871875 1.4173875000 -3.1925902880
3.9528825000 0.8216359375 -2.4454800720
4.9858634375 1.5438881250 -3.2162276880
5.0545693750 0.9799028125 -2.4094087520
6.1083381250 1.7397531250 -3.2827103040
6.1560815625 1.2155159375 -2.4105614800
2.7786734375 1.8251618750 -5.6927381616
3.2927518750 1.8801346875 -4.8220814080
3.8518593750 1.9526837500 -5.6518111368
4.4359606250 2.0354184375 -4.9017103040
5.0279631250 2.0713503125 -5.6361456928
5.6252062500 2.2214203125 -4.9142478400
3.8683337500 1.9814131250 -2.3872219760
5.0653193750 2.1097950000 -2.4155091440
2.7864940625 0.7093387500 -2.4051993520
2.7396778125 1.8334259375 -2.4570332560
5.0362675000 -1.7231846875 -6.3962248759
5.1002703125 -0.5504671875 -6.3807402418
2.7810921875 -0.9938912500 -6.4671153295
3.8878853125 0.2391606250 -6.4247607223
5.0038831250 0.3725143750 -6.4153507058
3.9287218750 1.3652634375 -6.4508886624
2.8275053125 1.2538934375 -6.4609887615
-3.9986775000 3.1970500000 -3.2139222320
-6.7111342969 2.4082956250 -4.8063188240
-6.1636871875 2.4705918750 -5.6915232640
-5.6352910938 2.5568471875 -4.8171855520
-5.6459792813 3.1364603125 -4.0540148560
-5.0992087500 2.6704343750 -5.6698869480
-4.5220681250 2.6705150000 -4.8975268080
-4.5394159375 3.2045212500 -4.0520072960
-3.9214656250 2.6539196875 -5.6271453480
-3.3431693750 2.6253918750 -4.8534511520
-2.8089078125 3.1027053125 -6.4273989152
-2.7920975000 2.4964456250 -5.6843077048
-6.2029824688 4.1648456250 -6.4012642401
-6.1288948125 3.5802068750 -5.6447665440
-5.5753249063 3.7151596875 -4.8514565440
-5.6978225000 4.2589350000 -4.0550251120
-5.0053746875 3.7529459375 -5.6729747048
-4.4670953125 3.8039143750 -4.8110204000
-4.5623940625 4.3575393750 -4.0191221680
-3.9513640625 3.7793640625 -5.6978412496
-3.3984781250 3.7253318750 -4.8310960000
-3.3505465625 4.2691206250 -3.9825198160
-2.8571215625 3.6812031250 -5.6818766144
-6.1163132813 5.2794056250 -6.4708408816
-6.6820136219 5.2248628125 -4.0670445680
-6.2237675938 4.7504921875 -5.6260159336
-5.5932881563 4.8034359375 -4.9077588880
-5.5840404688 5.3369987500 -4.0563980240
-5.0234750000 4.8659068750 -5.6751350984
-4.4805059375 4.9122259375 -4.8360825200
-3.9434493750 6.0002737500 -5.6216122536
-4.4981359375 5.4877675000 -4.0214405760
-3.9299715625 4.8912634375 -5.6850537400
-3.4114184375 4.8106653125 -4.8291532000
-3.3779725000 5.3958415625 -4.0714093920
-2.8373146875 4.7872571875 -5.6338596648
-6.2331295000 5.8488331250 -5.6876894720
-5.6886514063 5.8982696875 -4.8431931680
-5.6084832813 6.4884446875 -4.0884412720
-5.1351003125 6.0348350000 -5.6348116368
-4.5293915625 6.0030687500 -4.8933174080
-4.4958246875 6.5746193750 -4.0902934080
-3.3593884375 5.9887846875 -4.8248919920
-2.8387928125 6.4573637500 -6.4077652374
-3.4147375000 6.5541271875 -4.0524088080
-2.8464656250 5.8376934375 -5.6761026128
-6.2171576875 3.0472218750 -3.2672585680
-6.1611690000 2.4958812500 -2.4230472080
-5.0951640625 3.2290178125 -3.2170436640
-5.0820490625 2.6230134375 -2.4695966960
-3.9354271875 2.6446881250 -2.4095382720
-3.4313059375 3.1635906250 -4.0157287440
-2.8526468750 3.0592215625 -3.2745246400
-6.2206877188 4.1573743750 -3.1843657680
-6.1653090938 3.5746706250 -2.4036969200
-5.1286637500 4.3033190625 -3.2352541760
-5.0227762500 3.7753059375 -2.3859526800
-3.9743959375 4.3356093750 -3.2850028080
-3.8946981250 3.7943065625 -2.4582377920
-2.7657868750 4.2250590625 -3.2268871840
-2.8422731250 3.6409578125 -2.4814348240
-6.1492580000 5.2806553125 -3.2192584560
-6.1749558750 4.7205400000 -2.3849553760
-5.0620406250 5.4481806250 -3.2066043520
-5.0263371875 4.8683928125 -2.4256894160
-3.9175687500 5.4790331250 -3.2338683120
-3.9515521875 4.8931178125 -2.4642475200
-2.8147128125 5.3286271875 -3.2441003920
-2.8647809375 4.7909659375 -2.4146025040
-6.1360180313 6.3533709375 -3.2655489040
-6.2280756563 5.8271315625 -2.4008863360
-5.0395059375 6.5620553125 -3.2404479280
-5.0825596875 6.0024506250 -2.4139808080
-3.9609181250 6.5977721875 -3.2121219040
-3.9541321875 6.0229696875 -2.4145377440
-2.8530365625 6.4078600000 -3.2431289920
-2.8080209375 5.8776968750 -2.3824944960
-2.2399775000 2.9935928125 -3.9788803040
-2.3173371875 3.5129790625 -4.8520782400
-2.2707359375 5.8348984375 -4.8493194640
-2.2606981250 6.3801921875 -4.0047454480
-2.7542037500 2.5457881250 -2.3975188160
-2.2797793750 4.6840571875 -4.8162012000
-2.2446537500 5.2606200000 -4.0605167600
-3.9518746875 3.1948193750 -6.4746667341
-3.9310196875 6.5577015625 -6.4423232458
-5.0368050000 5.4572643750 -6.4216903212
-0.0152381250 6.6145690625 -4.8077953520
-2.2300471875 4.0860884375 -4.0726398320
-0.5613246875 6.6534975000 -5.6896581760
1.0629331250 6.3849356250 -4.8697447680
0.5120090625 6.5216890625 -5.6927355712
1.6560778125 6.3509790625 -5.6329698624
-0.5302303125 6.6895906250 -2.3996429440
0.5293031250 6.4575384375 -2.4375793520
1.6392675000 6.3271946875 -2.4460629120
-2.2386875000 2.4446440625 -4.8200738480
-1.7082556250 2.3774296875 -5.6956070296
-1.1026275000 2.7971500000 -4.0695702080
0.5663234375 2.5223531250 -6.4389002912
-0.0040312500 2.6775562500 -4.0827812480
1.0807378125 3.0516696875 -4.9061139840
-1.7106609375 3.4872328125 -5.6114850848
-1.1535690625 3.3955218750 -4.8110722080
-1.1323781250 3.9839231250 -4.0832604720
-0.6179637500 3.2590909375 -5.6502335832
0.5319368750 3.7114240625 -6.4021431628
-0.0009943750 3.8093162500 -4.0093563600
-0.0291056250 3.2691556250 -4.8485941520
0.4967709375 3.1049762500 -5.6843983688
1.0774456250 3.5878931250 -4.0461011840
1.6865943750 3.0056731250 -5.6224321152
-1.6786125000 5.1275215625 -6.4203461626
-1.7506643750 4.5357743750 -5.6518564688
-1.1509353125 4.5664521875 -4.8688640320
-0.6137309375 5.0084653125 -6.4080864470
-1.1259953125 5.0959165625 -4.0121669440
-0.6071196875 4.4020712500 -5.6705047584
-0.0298043750 4.3294953125 -4.9057642800
-0.0631428125 4.8710937500 -4.0542609440
0.5816825000 4.2927437500 -5.6312006192
1.1288709375 4.1631390625 -4.8425973760
1.0536881250 4.7152187500 -4.0334600320
1.6933937500 4.0826618750 -5.6693636872
-1.7468212500 6.2977531250 -6.4299998063
-1.7266246875 5.7002278125 -5.6696965536
-1.1407631250 5.6172915625 -4.9095333120
-1.1796109375 6.1441221875 -4.0437698240
-0.5177871875 5.5805131250 -5.6301774112
0.0314034375 5.4466353125 -4.8258892960
-0.0528496875 6.0239640625 -4.0571751440
0.5680568750 5.3841643750 -5.6741792408
1.1176909375 5.3015506250 -4.7951930560
1.7138725000 5.8004178125 -6.4333779470
1.1428459375 5.8727115625 -4.0037999520
1.6278859375 5.1918871875 -5.6928871096
-1.6419415625 2.9197134375 -3.2468980240
-1.6973175000 2.3392806250 -2.4771218080
-0.5378493750 2.7600625000 -3.2258769280
1.1002759375 2.5268143750 -4.0215830480
1.6315409375 2.3954493750 -3.1960096160
-1.6666800000 4.0326071875 -3.2301381360
-1.7671118750 3.4772890625 -2.4284611440
-0.5963025000 3.8249037500 -3.2468850720
-0.6078453125 3.3056518750 -2.3659288880
0.5393409375 3.6735840625 -3.1833425600
0.5454415625 3.0950728125 -2.4140714720
1.6342015625 3.5529153125 -3.1999729280
1.7079196875 2.9631300000 -2.4301060480
-1.7228756250 5.1027293750 -3.2266799520
-1.7042243750 4.5679303125 -2.3620562400
-0.5923518750 4.9865756250 -3.1803636000
-0.5761462500 4.3883112500 -2.4401308960
0.5071312500 4.8511256250 -3.2260194000
0.5413834375 4.2711900000 -2.4541708640
1.6459862500 4.6167218750 -3.2678155040
1.6752262500 4.1090531250 -2.3724048880
-1.7029478125 6.2752318750 -3.1785632720
-1.6981506250 5.6694828125 -2.4470213600
-0.6055609375 6.1293006250 -3.2226907360
-0.5519856250 5.5648181250 -2.4273084160
0.5101412500 5.9148246875 -3.2926056320
0.5922578125 5.3966478125 -2.3967676000
1.6900612500 5.7622553125 -3.2222374160
1.6443200000 5.1803040625 -2.4555696800
2.1914143750 2.3501515625 -4.0002252000
2.1668640625 3.4597665625 -4.0772896000
2.2274806250 4.0607184375 -4.7984958160
2.2292543750 4.6420918750 -4.0213499120
2.1913203125 5.1706962500 -4.8721149840
0.5231756250 2.5330225000 -3.2196470160
2.2327346875 6.2397837500 -4.8795235280
-0.5651678125 3.8293515625 -6.4402305911
1.6545459375 2.4430315625 -6.4198217362
5.6975134375 6.6884753125 -4.9868308480
6.6877765625 6.3786603125 -3.9990854240
2.2563175000 2.8782050000 -4.8368984960
2.8076043750 6.3139721875 -5.6813585344
3.3545778125 6.3919634375 -4.8885510720
3.9551265625 6.4343990625 -5.6990470808
4.4708175000 6.5725903125 -4.8633335280
5.0816325000 6.6258296875 -5.6166581136
6.1016328125 6.3527796875 -6.3016013200
2.7590412500 6.3271275000 -2.4688843360