ITEM: TIMESTEP
192000
# source: voids-relax.192000.cfg
ITEM: NUMBER OF ATOMS
2298
ITEM: BOX BOUNDS pp pp pp
-6.7187500000 6.7187500000
-6.7187500000 6.7187500000
-6.4760000000 6.4760000000
ITEM: ATOMS x y z
-6.1389259063 -6.3322431563 -6.4428902843
-5.5807361875 -6.2797079063 -4.0138507040
-3.8867834375 -5.5287733750 -5.6683521360
-4.4758162500 -6.6193252656 -4.8431672640
-3.8760871875 -6.6245675031 -5.6100849736
-4.4423031250 -6.0872143750 -3.9922338160
-3.3269503125 -4.8143337500 -4.0342501040
-3.3202584375 -6.5491647188 -4.8012545920
-6.1313619375 -5.7325167813 -5.6659003224
-5.0370871875 -5.6116975313 -5.7122477592
-6.1250664688 -4.0487456250 -6.3104967536
-5.5726884688 -4.6221103125 -4.8295288080
-5.0058450000 -5.0259878125 -6.4601437730
-4.4640450000 -5.5548797500 -4.8780081440
-4.4471943750 -5.0234078125 -3.9872213920
-3.9378459375 -3.8140462500 -3.2007241440
-3.3560693750 -5.9459459375 -4.0904099760
-2.7492050000 -5.3571684375 -5.6011234848
-6.1408394063 -4.6319331250 -5.6585448816
-4.4368878125 -4.4950587500 -4.8409913280
-5.5401482188 -4.0282131250 -4.0370736400
-3.9265181250 -4.3549862500 -5.6959360104
-3.3399175000 -5.3593587500 -4.8472860000
-3.9256581250 -3.7816887500 -6.4581358245
-4.4880175000 -3.8970228125 -4.0839857840
-3.3505600000 -4.2589484375 -4.8652504240
-3.8775250000 -4.9205706250 -3.2203205200
-2.7889262500 -4.2674812500 -5.6793198896
-3.8611178125 -4.3804503125 -2.3839710240
-6.5813878438 -3.6642181250 -4.9806916000
-5.6658667813 -3.5063006250 -4.9492182400
-6.7129838344 -3.1476806250 -4.0565404960
-5.5648450000 -2.9672015625 -4.0398583200
-5.0054150000 -2.8465328125 -3.2631786880
-5.0850993750 -3.4133400000 -5.6316047216
-4.4961068750 -3.3419868750 -4.8552514800
-4.4209509375 -2.7815356250 -4.0382522720
-3.9435703125 -3.2225275000 -5.6433262816
-3.3441234375 -3.2085659375 -4.8766093280
-3.8899815625 -2.6849871875 -3.1976804240
-2.7968812500 -3.0567759375 -5.6981676400
-6.1486183750 -6.3740525938 -3.2266540480
-5.0253562500 -6.2430383125 -3.2070706240
-3.8657537500 -6.0537039375 -3.1875778640
-3.9300253125 -6.6403081906 -2.4237984240
-2.7550906250 -4.7908046875 -3.2304489840
-2.7971365625 -5.8757430625 -3.2560162320
-6.1295035313 -5.2347259375 -3.2308245920
-6.1326317813 -5.8031845938 -2.4373591680
-5.5604764688 -5.7453119688 -4.8519487200
-4.9860784375 -5.6614445000 -2.4334347120
-5.5633198438 -5.1697690625 -4.0544552240
-6.1354321563 -4.1557618750 -3.2892122080
-6.1524655313 -4.6806171875 -2.4152501040
-4.9888600000 -4.0130690625 -3.1891839120
-5.0380143750 -5.0954462500 -3.2165126320
-2.7777865625 -4.2076575000 -2.4487569280
-3.3725034375 -3.7257215625 -3.9957956160
-6.1443304688 -3.0316881250 -3.2515607440
-6.0759819688 -3.6173078125 -2.4373980240
-5.0356896875 -3.4164978125 -2.4507774400
-3.8979096875 -3.2494428125 -2.3931021840
-2.8074700000 -2.4975743750 -3.2021488640
-2.7832825000 -3.6396543750 -3.2273275520
-2.7352165625 -5.3261815625 -2.4201459600
-6.6958874375 -4.8284028125 -4.8051142880
-6.6989263281 -2.5632300000 -4.8530884960
-6.1236085000 -2.5334390625 -5.6526258176
-5.5534513438 -2.3776178125 -4.8249697040
-4.9978093750 -2.2864712500 -5.6724773480
-6.1480177188 -2.5222725000 -2.4148356400
-4.9795746875 -2.3352359375 -2.3832586640
-3.3421481250 -2.6328900000 -4.0617342480
-4.9947321875 -6.2337234375 -6.4190558844
-2.7805009375 -6.3879200938 -5.6626610272
-2.8118103125 -6.4453492813 -2.4335642320
-3.9251340625 -5.4744764688 -2.4100434000
-5.0081696875 -4.5697981250 -2.3732597200
-2.7683400000 -3.0762737500 -2.4355717920
-5.0194571875 -4.4883668750 -5.6424222320
-6.1323294375 -3.1356137500 -6.2997012616
-3.8552993750 -4.9637587500 -6.4296813166
-2.7783509375 -3.6656828125 -6.3959071634
-2.2447478125 -4.0791546875 -4.8715969040
-2.2493300000 -2.4444828125 -4.0367627920
-6.6891982500 -5.3708612500 -4.0299111840
-6.6718169781 -5.9375716875 -4.8363156560
-6.7040423875 -4.2077515625 -4.0888039280
-3.8967003125 -6.0994626563 -6.4668637758
-2.7887650000 -2.4888803125 -6.4699327522
-2.2252634375 -4.6297293750 -4.0591697520
-2.1749131250 -5.2280340625 -4.8008401280
-2.2383650000 -2.9928134375 -4.8778268160
-2.2206543750 -5.8155444063 -4.0625890800
-1.6287325000 -4.6169234375 -3.2773611280
-1.0822965625 -6.2798691563 -4.8814404240
-2.2099043750 -6.3965792188 -4.8346059920
-1.6675668750 -6.2735347188 -5.6720136664
-1.1038771875 -5.2160478125 -4.8568186720
-1.0455718750 -5.7611426875 -4.0093175040
-0.5232696875 -5.7711240625 -6.4094328074
0.0586950000 -6.3901426563 -4.8890562000
0.0302209375 -5.2839609375 -4.8986536320
0.0798725000 -5.8344093125 -4.0701400960
1.1234018750 -6.0084303125 -4.1253933280
0.6754896875 -6.4829541250 -5.6541412016
0.6207453125 -5.9102263750 -3.1925384800
1.2272603125 -6.5787930625 -4.9720526160
-1.6656318750 -5.1409321875 -5.6766971096
-0.5182843750 -4.0857256250 -5.6289029344
-1.0660371875 -4.6366900000 -4.0679382560
-0.5517168750 -5.1554312500 -5.6772242560
0.0101453125 -4.7221793750 -4.0918735520
0.6207184375 -5.3720975000 -5.6217728584
1.2110412500 -5.3803454375 -4.8375460960
1.7148668750 -5.0106959375 -6.3899368094
1.1116709375 -4.8649796875 -4.0065457760
-2.2302756250 -3.5249115625 -4.0356359680
-1.6335296875 -4.0618471875 -5.6245562432
-1.0879537500 -4.0595225000 -4.8247754240
-1.6454756250 -3.5324903125 -3.2261100640
0.0745109375 -4.1294646875 -4.8408488560
1.2029653125 -3.7763137500 -4.0083202000
0.0039909375 -3.5922468750 -4.0058593200
0.5696290625 -4.2730981250 -5.7244472480
1.0881284375 -3.2537159375 -4.8877739520
1.1374978125 -4.3117578125 -4.8658591680
-1.6436346875 -2.4126896875 -6.4644817605
-1.6490365625 -2.9660190625 -5.6480615328
-1.0872146875 -2.8618918750 -4.8430766000
-0.5133662500 -2.4218943750 -6.4432829890
-1.1104884375 -2.3454081250 -4.0007303280
-0.5468390625 -3.0235450000 -5.6947483120
-0.0013437500 -3.0367137500 -4.8469622000
0.5533965625 -3.0740834375 -5.7063390568
1.1435581250 -2.6700446875 -4.1231785360
1.6702678125 -2.7337115625 -3.1946755600
1.7073150000 -3.2793546875 -5.6048614320
-1.6539681250 -5.7112438750 -3.2831377200
-0.4705946875 -5.7799363750 -3.2499158400
-0.5707981250 -6.3159098750 -2.4200293920
0.6117287500 -5.3515515625 -2.3891259200
0.5308215625 -6.4942900000 -2.4308443120
1.6471418750 -6.0857604375 -3.2441133440
-1.6428150000 -5.1673637500 -2.4223996080
-0.5191712500 -4.6324303125 -3.2070835760
-0.4951584375 -4.0906571875 -2.4001998800
0.5298943750 -4.8132721875 -3.2293869200
1.7025446875 -4.9748043750 -3.2888884080
1.7721912500 -5.5190311875 -2.4470213600
-1.6483512500 -2.9575131250 -2.4260261680
-1.6787737500 -4.0964621875 -2.4064168400
-1.1299862500 -3.4630184375 -4.1051623040
-0.5846253125 -3.5531168750 -3.2490739600
0.6072137500 -3.6673893750 -3.2837205600
0.6355803125 -4.2235406250 -2.4682496880
1.7802806250 -3.8243528125 -3.2191159840
1.6593431250 -4.4241490625 -2.4667731600
-1.6918350000 -2.4022487500 -3.2340496400
0.0719309375 -2.4853865625 -4.0264011920
-0.5209718750 -2.9668521875 -2.4621752000
0.6472843750 -2.5358309375 -3.2087932400
0.5118881250 -3.1277259375 -2.4529145200
2.1784471875 -6.6998076938 -4.9749150080
2.2385934375 -6.1795622500 -4.0359209120
1.7159418750 -5.7064050313 -5.6885987024
2.2113421875 -4.5529071875 -4.8798473280
-0.5109878125 -2.4242459375 -3.2822181280
1.6734390625 -3.2874978125 -2.3770287520
2.2017881250 -2.7955643750 -4.0809938720
-0.5029387500 -6.3512384063 -5.6706290976
-1.6973712500 -6.2427561250 -2.4361287280
-0.5858750000 -5.2336240625 -2.4426694880
1.6930309375 -4.4101875000 -5.7263149264
0.5997559375 -3.6839175000 -6.4262220965
1.6683328125 -6.1630381563 -6.4500176404
1.7069656250 -6.6493639906 -2.4200552960
-1.6472762500 -5.7121885313 -6.4654108463
1.7283312500 -3.7959459375 -6.4677780963
2.2774681250 -5.6000539375 -4.8320414960
2.2772800000 -3.9532721875 -4.1262999680
6.2110812500 -5.9783813750 -5.6705798800
6.1841793750 -4.8483843750 -5.6424792208
6.7104321875 -6.5006660938 -4.0227487280
3.3971881250 -6.3277644375 -4.0039942320
4.5107671875 -6.4996206563 -4.0968989280
5.5795993750 -6.5806796875 -4.0914849920
3.4107868750 -4.6221103125 -4.8412244640
2.8029415625 -5.6761195938 -5.7273459056
3.4327571875 -5.2152146875 -4.0935314080
3.9161040625 -5.8114258125 -5.6289158864
4.5002859375 -5.9279477500 -4.8829687600
5.0703315625 -4.8585700000 -5.7258020272
4.4778721875 -5.3659431250 -4.0780019600
5.0828150000 -6.0163423125 -5.6306890152
5.6655859375 -5.9908137500 -4.8454986240
5.5777046875 -5.4390081875 -4.0226192080
2.8032371875 -4.0025609375 -3.1913209920
3.3380900000 -4.0544968750 -4.0729636320
3.3198956250 -5.7924950625 -4.8588780400
3.4500781250 -3.4912371875 -4.8765316160
3.9468221875 -4.7461384375 -5.6501947272
4.5569787500 -4.7816806250 -4.8744722480
4.5117615625 -4.2690937500 -3.9690367840
5.6155446875 -4.9078990625 -4.8673745520
5.6741590625 -4.3254506250 -4.0655032800
6.1795837500 -5.3986271563 -6.4484069297
2.8103321875 -2.9155746875 -6.4154802258
2.3049209375 -3.3653815625 -4.8702110400
3.9777687500 -3.5665678125 -5.7315591912
3.3560828125 -2.4735615625 -4.8738505520
4.5579731250 -3.1695703125 -4.0533284000
4.5032690625 -2.5937196875 -4.8138180320
5.0615971875 -2.6146687500 -5.6352766136
5.6154640625 -3.7780740625 -4.8650950000
5.6755968750 -3.2109846875 -4.0991655280
6.2281065625 -3.7777246875 -5.6161970224
2.7946371875 -6.2380059688 -3.2726336480
3.9762503125 -6.3946428750 -3.2427015760
5.0437118750 -6.5492211563 -3.2049464960
6.1182012500 -6.5316596875 -3.2449681760
2.3134537500 -5.0600115625 -3.9889051520
2.7988968750 -5.6849749063 -2.4694024160
3.9433687500 -5.2930984375 -3.1770996960
3.9089687500 -5.8572114063 -2.3869370320
5.0075112500 -5.4623773438 -3.2282600960
5.1202250000 -5.9847467188 -2.3767956160
6.1560143750 -5.4366391563 -3.2689941360
6.2380503125 -5.9857048125 -2.4156386640
2.7914793750 -4.5703087500 -2.3820023200
2.8950959375 -5.0969109375 -3.2420539760
3.8936903125 -4.1867621875 -3.2704836160
4.0026953125 -4.7054093750 -2.3965603680
5.1287578125 -4.2895725000 -3.2609250400
5.0864028125 -4.8647243750 -2.4645842720
6.2164293750 -4.3192962500 -3.2062416960
6.1756868750 -4.9127768750 -2.4294973040
3.3772737500 -2.9681153125 -3.9741916800
2.7581006250 -2.8986568750 -3.2811042560
6.1962059375 -3.2017396875 -3.1961261840
3.9689537500 -3.6072968750 -2.4881828160
3.9919050000 -3.0238540625 -3.2760141200
4.9995965625 -3.7395756250 -2.4509846720
5.1283950000 -3.1583634375 -3.2413934240
6.2016212500 -3.7535909375 -2.4111831760
2.8448396875 -2.3141390625 -5.7355730160
4.4909603125 -3.7406775000 -4.8469362960
3.9726490625 -2.4113325000 -5.6434260120
5.6364937500 -2.5952112500 -4.8412633200
6.1705671875 -2.6859950000 -5.6686137664
2.9076868750 -3.4289946875 -2.4087741040
3.8958000000 -2.4888803125 -2.4454023600
5.0529568750 -2.6057059375 -2.4090072400
6.1359253125 -2.5940018750 -2.4412188640
2.8271156250 -2.3347521875 -2.4931434320
2.8265915625 -4.5816768750 -5.6141376544
2.8468284375 -3.5280828125 -5.6674092304
3.9413396875 -4.1861978125 -6.4298363521
5.0785015625 -3.6701843750 -5.6537073096
3.9563225000 -6.3602791563 -6.4388487422
2.8406068750 -6.2762692500 -6.4715168465
5.0900981250 -4.2455646875 -6.4350855386
3.9461368750 -2.9749550000 -6.4618192438
5.0595681250 -5.4630519063 -6.4426864198
-3.9112262500 -2.0945165625 -2.4204697600
-6.6614797781 -2.0225856250 -4.0363742320
-5.0513578125 -1.7332896875 -6.4410398321
-5.5903870000 -1.8216546875 -4.0569549600
-4.4709518750 -2.2134518750 -4.8351499760
-3.9331831250 -1.5822925000 -6.4694478681
-4.4934328125 -1.6567765625 -4.0330714720
-3.8926421875 -2.1275325000 -5.6522981320
-3.3375928125 -2.0670906250 -4.8499670640
-3.3519440625 -1.5093537500 -4.0375787680
-6.1731646563 -1.4178175000 -5.6447924480
-5.6190639688 -1.2530871875 -4.8780081440
-5.5272912188 -0.7243350000 -4.0379284720
-5.0319675000 -1.1640234375 -5.6222015696
-4.4410803125 -1.1001953125 -4.8635019040
-3.9215731250 -0.4222600000 -6.4436549704
-4.4706159375 -0.5239146875 -4.0723678400
-3.8899950000 -1.0080006250 -5.6723633704
-3.3431962500 -0.9308559375 -4.8178461040
-2.8125493750 -0.2723243750 -6.4579682256
-3.3859275000 -0.3524790625 -4.0428890880
-2.8017053125 -0.8495590625 -5.6751959728
-6.6680657656 -0.3290978125 -4.8366912640
-6.6831922250 0.7745240625 -4.8896649440
-6.1523580313 -0.2773500000 -5.7349824048
-5.6437446250 -0.1318487500 -4.8119658960
-5.6001278438 0.4142781250 -3.9825975280
-5.0980800000 -0.0719846875 -5.6652488368
-4.5436218750 0.0429596875 -4.8623621280
-4.4009425000 0.5934000000 -4.0295744320
-3.9618990625 0.1194593750 -5.6126598312
-3.3657040625 0.1822125000 -4.8860124800
-3.3276221875 0.7640428125 -4.0914461360
-2.7911837500 0.2879387500 -5.6577004112
-6.2082230938 1.4521637500 -6.4469870019
-6.1935963750 1.4589900000 -3.1696004880
-6.1148136563 0.8709650000 -5.6687743712
-5.5650573125 0.9683331250 -4.8209675360
-5.6864328750 1.5415768750 -4.0601411520
-5.0478506250 1.0480846875 -5.7225355328
-4.5309503125 1.1704062500 -4.8062152080
-4.5203615625 1.7265037500 -3.9971037680
-3.9917571875 1.2195203125 -5.6716406488
-3.4359956250 1.3286328125 -4.8716875680
-2.8463043750 1.4128321875 -5.6110822776
-6.1124392500 -1.9166578125 -3.1824618240
-5.0479043750 -1.7642900000 -3.2034958720
-3.9287621875 -1.5652806250 -3.2607048560
-2.7927559375 -1.3849359375 -3.2478046640
-6.1142130000 -0.7881228125 -3.2631916400
-6.1986851563 -1.3392350000 -2.4373462160
-4.9891018750 -0.6425678125 -3.1839124480
-5.0251009375 -1.2120893750 -2.3843984400
-3.9259940625 -0.4719921875 -3.2107748960
-3.8711825000 -1.0246900000 -2.3822743120
-2.8103859375 -0.2677018750 -3.2698619200
-2.8029953125 -0.8146081250 -2.4386025600
-6.1459967188 -0.2315818750 -2.4545076160
-4.9924881250 0.4953062500 -3.2920227920
-5.1029578125 -0.0550131250 -2.4458556800
-3.8531225000 0.6585853125 -3.1915411760
-3.9638071875 0.0824121875 -2.3979073760
-6.1849224688 2.0361171875 -2.4144988880
-6.2198949063 0.3199065625 -3.2989391600
-5.1128612500 1.6163565625 -3.2543713280
-5.0364018750 1.0366896875 -2.4589760560
-2.7563000000 1.9516087500 -3.2212271600
-3.9979250000 1.2418534375 -2.4339527920
-2.8042853125 0.8194053125 -3.1783171840
-2.8405396875 1.4091503125 -2.4054065840
-2.7720084375 -1.9306328125 -5.6472390808
-2.2405553125 -0.1939971875 -4.0512301760
-2.2830850000 0.9278593750 -4.0878843360
-6.1722132813 2.0024159375 -5.6071720688
-5.5571332188 2.0924471875 -4.9191696000
-4.9686365625 2.1802612500 -5.6584658744
-3.3112015625 1.8624778125 -4.0199251920
-6.1164301875 0.8428940625 -2.4417887520
-3.9133896875 1.7725675000 -3.2901447520
-2.7773834375 -1.9184853125 -2.4149004000
-2.7809309375 0.2490237500 -2.3799300000
-2.2578225000 -0.7637203125 -4.8410560880
-6.6959484438 -0.8901671875 -4.0243029680
-4.9830012500 2.1609650000 -2.4350537120
-6.1302197500 -1.9636353125 -6.4758781465
-2.7916809375 0.8623246875 -6.4373249394
-2.2279778125 1.5033068750 -4.8943406160
-2.2007803125 2.0312931250 -4.0518130160
-2.1967356250 -1.8811290625 -4.8365746960
1.6429225000 -1.6288534375 -3.2889920240
-1.7413790625 0.9708325000 -3.2432326080
-1.6535246875 -1.2335221875 -6.4585413516
-2.2158168750 -1.3191996875 -4.0301184160
-1.6765565625 -1.8252693750 -5.7083530928
-1.0729843750 -1.2557746875 -4.0248599040
-0.5506284375 -1.8499271875 -5.6935528424
-0.5086900000 -1.2812521875 -3.1995714160
-1.1236706250 -1.8015925000 -4.8725683040
-0.0219703125 -1.9480478125 -4.8747053840
0.0030637500 -1.3646587500 -4.1208730800
0.5974715625 -1.9862909375 -5.6002492248
1.1822715625 -2.0704634375 -4.8552644320
1.0783325000 -1.5106437500 -4.0561130800
1.7266918750 -2.2118528125 -5.6648434392
-1.6963365625 -0.6857828125 -5.6613308568
-1.1299190625 -0.7189600000 -4.8703923680
-0.6244540625 -0.1851015625 -3.2206961280
-0.5468525000 -0.7273450000 -5.6225823584
0.0520031250 -0.7686115625 -4.8726201120
0.5979015625 -0.9267978125 -5.6829218408
-0.0668515625 -0.2326703125 -4.0383299840
1.1623840625 -0.9292031250 -4.8470399120
1.1304296875 -0.4048987500 -3.9718862240
1.6919156250 -1.0279821875 -5.7345122472
-2.2271984375 0.3702568750 -4.8760005840
-1.6360962500 0.3906818750 -5.6377504456
-1.1558400000 -0.1376000000 -4.0925082000
-1.0701625000 0.4614706250 -4.8324300560
-0.5423375000 0.3555562500 -5.6878759808
0.0178987500 0.3407212500 -4.8454079600
0.0439540625 0.8695943750 -3.9899801680
0.5561915625 0.2760868750 -5.7226533960
1.0701356250 0.1228590625 -4.8504592400
1.6565884375 0.1074328125 -5.6398616216
1.1632709375 0.7027409375 -4.0903711200
2.2136803125 -0.0073637500 -4.8357975760
-1.6767581250 2.1180187500 -6.4159813386
-1.6608481250 1.5163278125 -5.6786373192
-1.1654881250 1.0041978125 -4.0178528720
-1.1025871875 1.5486315625 -4.8553032880
-0.5491771875 1.5114768750 -5.7094164520
-0.0314303125 1.4163259375 -4.8374036240
0.0037759375 2.0008571875 -4.0933759840
0.5471615625 1.3791040625 -5.6289094104
1.1263715625 1.3011396875 -4.8371316320
1.6666531250 1.1628409375 -5.6383643704
-1.6457040625 -1.2426596875 -3.2456028240
-0.5327834375 -0.7326931250 -2.3829219120
0.5179887500 -1.4535612500 -3.2112282160
0.5677612500 -1.9948909375 -2.3709542640
1.6827915625 -1.0614281250 -2.4984926080
-1.7149340625 -0.7047834375 -2.4397164320
-0.5156640625 0.4101528125 -2.4578233280
-0.5728271875 0.9482306250 -3.2992111520
0.5099262500 -0.3346206250 -3.2884868960
1.7370790625 -0.4630562500 -3.2665073520
-1.6491171875 1.5322646875 -2.4193040800
-1.6871050000 -0.1194190625 -3.2160334080
-0.5364653125 2.0763759375 -3.2257733120
-1.6314871875 0.4420131250 -2.4115587840
-0.5781753125 1.4877193750 -2.4566317440
0.6291840625 0.8276425000 -3.2346842880
1.6967128125 0.6477950000 -3.2062935040
1.6256284375 0.0693106250 -2.4279689680
-1.6616946875 2.1057771875 -3.2071094800
0.5441246875 1.9223821875 -3.2379222880
1.1179059375 1.8634856250 -4.0620450960
1.7289628125 1.2226109375 -2.4075954720
1.6750918750 1.7406131250 -3.2803141840
2.2307996875 2.2023928125 -4.8740966400
-1.6507565625 -1.8243018750 -2.4597661280
-0.5961412500 -1.8782803125 -2.4445604800
1.7786681250 -2.1488981250 -2.4139419520
0.6481443750 -0.8661678125 -2.4352609440
0.5241162500 0.2324418750 -2.4880532960
0.5306200000 1.3725062500 -2.4111572720
-1.0980318750 2.1202090625 -4.0331491840
2.1883237500 -1.1747196875 -4.8499023040
1.6850356250 -1.6314200000 -6.4408490491
-1.7138993750 0.9511600000 -6.4571405928
-0.5696021875 0.9368490625 -6.4678993659
1.6850625000 1.7339750000 -6.4311004673
-0.5278250000 -1.2612303125 -6.4582516154
0.5455356250 -0.3344996875 -6.4319231783
5.6013815625 -2.0726268750 -3.9927259920
2.2412003125 0.5722090625 -4.0754115600
2.2605234375 -1.7028000000 -3.9803568320
6.6860028125 -1.4581971875 -4.8323523440
6.6574750000 1.8866653125 -4.9022024800
2.8727225000 -1.7343109375 -3.2622072880
3.3513259375 -0.1086421875 -4.8621419440
4.4662756250 -1.9800425000 -4.1000980720
5.0606431250 -2.0692003125 -6.4664830258
6.1949562500 -2.1148340625 -6.4458573285
2.8343853125 -0.6486415625 -3.2247501040
2.3160068750 -2.2320225000 -4.8665197200
2.7924065625 -1.1677321875 -5.6382568688
3.9614153125 -0.8149575000 -6.4297019103
3.9145184375 -0.7976365625 -3.2615855920
3.3321640625 -1.3009381250 -4.8281947520
3.9059856250 -1.3737425000 -5.6193871000
4.5040887500 -1.3954171875 -4.8565337280
5.0741478125 -1.5081981250 -5.6696279080
5.6096993750 -1.5170131250 -4.8311219040
6.1587690625 -0.9381256250 -3.2528041360
6.1826475000 -1.5374650000 -5.6903653552
2.2901262500 -0.5980493750 -4.0773543600
2.7514356250 -0.1304781250 -5.6443106336
3.3808212500 -0.6946515625 -4.1028827520
3.3650187500 0.4264121875 -4.0199770000
3.8931259375 -0.2346590625 -5.6673975736
4.4578368750 -0.3050850000 -4.8823859200
4.5000709375 0.2894975000 -4.0921714480
6.2192646875 -0.4280246875 -5.6630677200
5.6491653125 -0.3865700000 -4.8737210320
5.5896371875 -0.9340943750 -4.0518389200
6.1183490625 0.1493712500 -6.4507617328
2.2809350000 1.1389893750 -4.8708974960
2.8072012500 1.0241928125 -5.7065708976
3.3568756250 0.9545193750 -4.9020341040
3.4468934375 1.4952846875 -4.0482900720
3.9757800000 0.8899118750 -5.6484500928
4.4908259375 0.8859209375 -4.7214832240
5.0105212500 0.7195781250 -5.6458752352
4.9299903125 1.2858343750 -3.3945767280
5.0635456250 -0.3593993750 -5.6127401336
5.6324356250 0.7420859375 -4.8986795360
6.1829028125 1.3221156250 -6.4237099266
6.1661731250 1.3312934375 -3.2398780400
6.1702581250 0.7227493750 -5.6820670088
3.4115393750 -1.8798390625 -4.0759944000
5.0056837500 -2.0649675000 -3.2610545600
6.2058675000 -2.0584100000 -3.2708980800
2.8083300000 -0.0862553125 -2.4019872560
2.7450796875 -1.2071846875 -2.4205604240
3.9545353125 -1.8859665625 -3.2022136240
3.9412725000 -1.3217393750 -2.3953946880
4.4999365625 -0.8302493750 -4.0322814000
5.0878943750 -1.5151990625 -2.4206381360
5.0473668750 -0.9582146875 -3.2191159840
6.1573581250 -1.5190690625 -2.4358437840
2.8500400000 1.6041418750 -3.2505116320
2.7822612500 0.4376056250 -3.2539439120
3.9450753125 0.3210353125 -3.2420539760
3.9074906250 -0.2263546875 -2.4387320800
5.0251143750 0.1683718750 -3.1871504480
5.0197662500 -0.3859250000 -2.4124265680
5.5737943750 0.1641928125 -4.0795173440
6.6364587500 0.2413375000 -4.0287843600
2.2919134375 1.6693540625 -4.0182155280
4.0117521875 1.4255709375 -3.3301923360
3.8935156250 0.8912018750 -2.4304816560
5.5789678125 1.2568228125 -3.9841647200
6.0815168750 0.1528650000 -3.2015142160
6.1812365625 0.7589903125 -2.4616182640
6.7049900000 1.3391946875 -4.0780537680
2.8302465625 2.1897884375 -5.6535751992
3.3721540625 2.0719818750 -4.8674004560
3.9548040625 1.9857131250 -5.6516842072
4.4789875000 1.7961368750 -4.6504026480
4.9630331250 1.8544153125 -5.6714839296
5.5422700000 1.7948603125 -4.8509773200
6.0833175000 1.9118471875 -5.6675063704
3.9227287500 1.9821790625 -2.4508033440
5.0338756250 1.8036484375 -2.4506220160
6.0800790625 1.8837090625 -2.4212986880
6.2252981250 -0.4085000000 -2.4105614800
2.8301256250 1.0292721875 -2.4970808400
5.0871956250 0.7896278125 -2.4381880960
2.7968409375 2.1658965625 -2.4537304960
5.0269015625 -0.9145159375 -6.4230190669
5.0815384375 1.2912093750 -6.4623840805
2.8284728125 -1.7048290625 -6.4677570104
2.8085046875 0.4336818750 -6.4410745434
3.9014840625 0.3424546875 -6.4501041598
2.7748706250 1.6271334375 -6.4372504654
-6.6942394625 6.4138262500 -4.8784744160
-5.6042249375 6.6309090625 -4.8903902560
-5.0074037500 6.6305596875 -5.6600576752
-3.3159315625 6.3189440625 -4.0297298560
-4.9944231250 6.6299415625 -2.4132814000
-6.1503195625 6.5105896875 -5.7194995840
-4.0007200000 2.8920053125 -3.2459007200
-6.1774377813 2.6009759375 -3.2267965200
-5.0911059375 2.7648596875 -6.4093765958
-5.6109396563 2.6150181250 -4.0707488400
-4.4187471875 2.2861218750 -4.8310182880
-4.5756300000 2.8385912500 -4.0397547040
-3.8850634375 2.3370365625 -5.7238644080
-3.3788728125 2.4446709375 -4.7873959520
-2.8395318750 2.5169243750 -5.6893304904
-6.7025463906 2.4355200000 -4.0643116960
-6.2097280938 3.1559043750 -5.6801190280
-6.1406526250 2.5603678125 -6.4294016830
-5.6371710000 3.2024921875 -4.8682423360
-4.9877715625 3.9007181250 -6.4411799727
-5.5368694688 3.7524353125 -4.0450391200
-5.0620943750 3.3389500000 -5.6256830672
-4.4526768750 3.3766690625 -4.9160352160
-3.9155396875 4.0706487500 -3.1577235040
-3.8646250000 3.4530343750 -5.6581381888
-3.3126393750 3.5529018750 -4.8558213680
-3.3990693750 4.1219128125 -4.0605297120
-2.7569584375 3.6182753125 -5.7094721456
-6.1308540000 5.3323762500 -5.6558741792
-6.7070867203 4.7793693750 -4.0559188000
-6.1599112500 4.2446643750 -5.6470111256
-3.8732653125 5.1835290625 -6.4596414945
-5.6015065313 4.9480906250 -4.0710208320
-5.6069030313 4.3379878125 -4.7913204080
-4.4330850000 3.9068187500 -4.0455960560
-3.9442287500 5.7570818750 -5.6796605272
-4.5282225000 4.4657112500 -4.8651209040
-5.0991146875 4.4791353125 -5.6816201648
-3.3562171875 4.6613612500 -4.9299845200
-3.3215215625 5.1818628125 -4.0528232720
-2.7508578125 4.7340984375 -5.6306488640
-6.7002766625 5.8604028125 -4.0226062560
-6.1256106875 5.8959987500 -6.4296681056
-5.5895915000 5.5183378125 -4.8573108480
-5.6105445938 6.0783321875 -4.0522404320
-4.9965731250 5.5496337500 -5.6317938208
-4.4647437500 5.6318040625 -4.7788346800
-4.4987675000 6.2356046875 -4.0740904560
-3.3812781250 5.7585868750 -4.8428046080
-2.7423653125 6.4805434375 -3.2716104400
-2.8376775000 5.9041284375 -5.6908873208
-6.1752326875 3.1634562500 -2.4039171040
-5.0997731250 2.7581678125 -3.1616350080
-3.8846603125 2.3362840625 -2.4511789520
-3.4221012500 3.0109406250 -3.9978549840
-2.8117296875 3.0806678125 -3.3022419200
-6.1411135313 3.6862959375 -3.3142225200
-5.0022840625 3.9402646875 -3.2296330080
-5.0557250000 3.3622909375 -2.4395092000
-3.8863131250 3.4576300000 -2.4394703440
-2.7879318750 3.6063562500 -2.4327482560
-2.8360112500 4.1825428125 -3.2225223600
-6.1373295313 4.7694525000 -3.2350339920
-6.1736873750 4.1950800000 -2.4212339280
-4.4334478125 5.0229240625 -4.0569031520
-5.0181806250 5.0163800000 -3.2885775600
-3.9002612500 5.2190443750 -3.2327285360
-3.9618721875 4.6624228125 -2.4176850800
-2.8028878125 5.3152165625 -3.1804154080
-2.7591890625 4.7432762500 -2.4118307760
-6.1576792813 6.4923684375 -2.4545205680
-6.1302882813 5.9033625000 -3.1955692480
-5.0281109375 6.0715059375 -3.2349821840
-5.0101181250 5.5257418750 -2.3943585280
-3.9048837500 6.2799484375 -3.3019699280
-3.9185900000 5.7780712500 -2.3852921280
-2.8092571875 5.9121371875 -2.4568260240
-2.2613700000 5.4205128125 -4.0499479280
-2.2670137500 5.9550834375 -4.9162813040
-6.7157042966 3.0373050000 -4.8066296720
-2.8431331250 2.5425900000 -2.4476042000
-5.0833256250 4.4702934375 -2.3971173040
-6.1414145313 5.3319731250 -2.4301967120
-3.9675965625 4.6290171875 -5.6390262176
-2.3034965625 2.5948215625 -4.8468067760
-2.2536300000 3.7131575000 -4.7939237600
-2.2845765625 4.3092046875 -4.0606333280
-6.7173414947 4.2000921875 -4.8388672000
-3.9253490625 4.0460178125 -6.4038933666
-2.8436303125 4.1905650000 -6.4748121229
-2.7799634375 5.2991318750 -6.4152808945
-2.7597534375 6.4825725000 -6.4512645294
-1.6196621875 6.6156440625 -3.1935228320
-2.1463181250 6.4839834375 -4.0381875120
1.1463262500 2.4341359375 -4.8644603520
-2.2082112500 3.1400884375 -4.0079575440
-1.7335046875 2.7021065625 -5.6643914144
-1.1715753125 2.6456690625 -4.8825542960
-0.5567559375 4.3101856250 -6.4409556441
-1.0861396875 3.2143709375 -4.0797375280
-0.5810778125 2.6063912500 -5.6168912496
0.0179121875 2.5921609375 -4.8619088080
-0.0216746875 3.1473312500 -4.0658788880
0.5624265625 2.4396453125 -5.6586627448
1.6931921875 2.3312718750 -5.6940022768
1.1240871875 3.5162040625 -4.8880459440
-1.7189787500 3.7862440625 -5.6747309960
-1.1638218750 3.7983378125 -4.8408747600
-1.1119934375 4.3493290625 -4.0145242080
-0.6162168750 3.7411478125 -5.6572600432
0.5571859375 4.1977675000 -6.4640117713
0.0220912500 4.2114065625 -4.0090325600
-0.0198203125 3.7000425000 -4.9055700000
0.5712281250 3.6336881250 -5.6761906864
1.0912325000 4.0903078125 -4.0922880160
1.7172453125 3.4658000000 -5.6495005000
-2.1724271875 4.8761462500 -4.8670766560
-1.6141125000 4.8635418750 -5.6793444984
-1.0789506250 4.8951200000 -4.8333496480
-1.0902650000 6.0111581250 -4.8796919040
-0.5303109375 4.9107746875 -5.6955785352
-0.0056975000 4.7636878125 -4.8365876480
-0.0231393750 5.3447118750 -4.0621487120
0.5656381250 4.7693718750 -5.6521452984
1.1348640625 4.6716543750 -4.8574792240
1.1254443750 5.2112775000 -4.0089548480
1.6774703125 4.5756300000 -5.6922744800
-1.6343359375 6.5866862500 -6.4434761033
-1.6495606250 6.0171915625 -5.6515896576
-1.0782787500 6.5805050000 -4.0843872960
-0.5011381250 5.9789081250 -5.6499564104
0.0462115625 5.9245668750 -4.8203717440
0.0382968750 6.5066256250 -4.0634180080
0.5663906250 5.8382981250 -5.6909831656
1.1170190625 5.7589631250 -4.8320803520
1.7031225000 6.3540831250 -6.3692145161
1.1759156250 6.3451068750 -4.0445210400
1.6760593750 5.8124175000 -5.6855653440
-1.6315543750 3.2419446875 -3.2307080240
-1.7428706250 2.6781878125 -2.4338880320
-0.5677209375 3.1734537500 -3.1936134960
-0.5689706250 2.6153003125 -2.3879213840
1.0985962500 2.9896153125 -4.0322295920
0.6095250000 2.4720431250 -2.4124006640
1.6711412500 2.8844937500 -3.2373394480
-1.7190056250 4.3337550000 -3.2774517920
-1.7222575000 3.8006893750 -2.4192004640
-0.5626012500 4.3104140625 -3.2312390560
-0.5736737500 3.7659668750 -2.4170892880
0.5701531250 4.1704221875 -3.1871115920
0.5435200000 3.5705453125 -2.4369965120
1.6215837500 3.9944850000 -3.2191677920
1.6976400000 3.4375275000 -2.4187471440
-1.1588903125 5.4789121875 -4.0417234080
-1.6975728125 5.4477775000 -3.2178078320
-0.5714296875 5.4576540625 -3.2565731680
-0.5550762500 4.8907662500 -2.4463349040
0.5350812500 5.2940525000 -3.2657302320
0.5817228125 4.7535693750 -2.4253008560
1.7143159375 5.1170537500 -3.2793427840
1.7245956250 4.5851437500 -2.4465680400
-1.6625950000 6.0135500000 -2.4492232000
-0.5323131250 6.5479728125 -3.2453567360
-0.5225171875 5.9978684375 -2.4179829760
0.6066090625 6.4049843750 -3.2722321360
0.5807150000 5.8545978125 -2.4545205680
1.7558243750 6.2341400000 -3.2536330640
1.6255209375 5.6794803125 -2.4502982160
2.1844134375 3.9219896875 -4.0340558240
2.2327884375 4.4658993750 -4.8511068400
2.1997456250 5.5383865625 -4.8495655520
0.5250031250 3.0167590625 -3.2488667280
1.6876290625 2.3004193750 -2.4670322000
-1.6190440625 4.8703950000 -2.4255080880
2.2117184375 2.7805815625 -4.0741163600
0.5397978125 3.0341337500 -6.4108163401
1.6408934375 2.9156418750 -6.4687184374
-0.5453475000 3.1754290625 -6.4440788894
-1.7053531250 5.4487987500 -6.4379857505
1.7139934375 5.1607390625 -6.3948435451
6.7070728125 5.3322015625 -4.8876314800
2.2980678125 5.0417903125 -4.0209743040
2.2937543750 6.1843406250 -4.1333976640
2.7230825000 6.6087640625 -5.6715590512
3.3502912500 6.6063453125 -4.8911673760
3.8910028125 6.4679390625 -5.7249096344
4.4297928125 6.3556687500 -4.8649266240
5.0309596875 6.3472031250 -5.6163498560
5.6131393750 6.2669409375 -4.8387376800
6.1497256250 6.3601165625 -5.6593103448
2.8829887500 6.6472893750 -2.4510623840
3.9447931250 6.4608709375 -2.4750753920
5.0341712500 6.3215240625 -2.3923898240
6.1878209375 6.3563406250 -2.4007309120