ITEM: TIMESTEP
65000
# source: voids-relax.65000.cfg
ITEM: NUMBER OF ATOMS
2298
ITEM: BOX BOUNDS pp pp pp
-6.7187500000 6.7187500000
-6.7187500000 6.7187500000
-6.4760000000 6.4760000000
ITEM: ATOMS x y z
-5.5749164063 -6.2151958125 -4.0427207120
-4.4683853125 -6.6337040625 -4.8750680400
-3.9085118750 -5.9148542500 -6.4395763856
-4.4761790625 -6.0840471563 -4.0776393040
-3.8994953125 -6.5031090313 -5.6464438280
-3.3326881250 -6.4268485313 -4.8459260400
-3.3730409375 -5.8555559063 -4.0607887520
-2.7761875000 -6.3122441250 -5.6706783152
-6.6821432938 -5.8442334688 -4.8827226720
-6.1281597813 -5.7828039375 -5.7208323448
-5.6183316250 -5.6357036250 -4.8357198640
-5.6241702188 -5.0928528125 -4.0309862000
-5.0471921875 -5.6156817500 -5.6805321968
-4.5231296875 -5.4885777813 -4.8399551680
-4.4446815625 -4.9515306250 -4.0464638400
-3.9222718750 -5.3795821875 -5.6187213672
-3.3698159375 -5.2988093750 -4.8605618000
-2.6659596875 -4.6830225000 -3.4205843440
-2.7645506250 -5.2126212500 -5.6003489552
-6.1630905625 -4.0494981250 -6.4514505202
-6.6778131938 -4.1997293750 -4.0739350320
-6.1454538438 -4.6148675000 -5.6380340944
-5.5630699063 -4.5444953125 -4.8986665840
-5.1023665625 -3.9005568750 -6.4336938462
-5.5543220938 -4.0156625000 -4.0468912560
-4.9661775000 -4.4872112500 -5.7050231336
-4.4893478125 -4.3614765625 -4.8464700240
-4.4097440625 -3.8117618750 -4.0311545760
-3.8798093750 -4.3098093750 -5.6823247536
-3.4003190625 -4.1306337500 -4.7560650640
-3.8399537500 -3.7129021875 -3.3488820720
-2.8237831250 -4.1332406250 -5.6847066264
-6.2074544688 -3.4928496875 -5.6427784120
-5.6303138438 -3.4515159375 -4.8572849440
-5.5488987188 -2.9119868750 -4.0473057200
-5.0682621875 -3.3216693750 -5.6672576920
-4.5042500000 -3.2807253125 -4.9202187120
-3.9383968750 -2.5835206250 -6.4171417083
-4.4457162500 -2.7434806250 -4.0541961840
-3.8951953125 -3.1812743750 -5.6927187336
-3.3632718750 -3.2047631250 -4.7899215920
-2.8203431250 -2.4519406250 -6.4609013355
-3.3559215625 -2.7356062500 -4.0532765920
-2.8076178125 -3.0192718750 -5.6462715664
-6.1401635000 -6.3387872188 -3.2695769760
-5.0055225000 -6.1445011250 -3.2408494400
-3.8955312500 -5.9747035313 -3.2612488400
-3.9246771875 -6.4941274063 -2.3856677360
-2.7859834375 -5.7462848438 -3.2124586560
-2.7915734375 -6.3107834688 -2.4764742080
-6.1657404375 -5.1990762500 -3.2213955360
-6.1502805938 -5.7781908438 -2.4543780960
-5.0137059375 -5.0291859375 -3.2810006400
-5.0420725000 -5.5872842813 -2.4488087360
-3.8837600000 -4.8587581250 -3.2284543760
-3.9294071875 -5.4076155000 -2.4488994000
-2.7955778125 -4.1313325000 -2.4406101200
-2.8576456250 -5.1276156250 -2.4469695520
-6.1521900625 -4.0388287500 -3.2324306400
-6.1271291250 -4.6244350000 -2.4642734240
-5.0033590625 -3.9154859375 -3.2349692320
-4.9804346875 -4.4775765625 -2.4487569280
-3.8653909375 -4.2394237500 -2.4901644720
-2.8872081250 -3.6244834375 -3.3878028320
-6.1795716563 -2.9656293750 -3.3082775520
-6.1219986875 -3.4921106250 -2.4289403680
-5.0284871875 -2.7470281250 -3.2408235360
-5.0257190625 -3.3351337500 -2.4885972800
-3.9224331250 -2.5917846875 -3.1912432800
-3.9403318750 -3.1848487500 -2.4094735120
-2.8435631250 -2.4559987500 -3.1743020640
-2.7887246875 -3.0944815625 -2.4893744000
-2.2603756250 -5.6864691563 -4.0832993280
-3.3086618750 -4.6614956250 -4.0427077600
-2.2914700000 -4.1087709375 -4.7866835920
-2.2984440625 -2.4312737500 -4.0518000640
-6.1647138125 -2.4450606250 -5.7070086752
-6.1613396563 -2.4465521875 -2.4224902720
-2.2480937500 -5.0273718750 -4.6759051360
-2.2796315625 -3.5908090625 -4.0366203200
-6.7118381263 -2.4348884375 -4.8406934320
-5.6491639688 -2.3167728125 -4.7910613680
-5.0752362500 -6.7085838056 -5.6114527048
-5.0438059375 -6.7159771450 -2.4293807360
-2.8277068750 -5.7623681875 -6.4660341743
-6.2097146563 -5.1676593750 -6.4328399209
-2.7833093750 -3.5578603125 -6.4732854551
-5.0010478125 -2.7556684375 -6.4701252966
-2.2274806250 -6.2603229688 -4.8605099920
-1.6619903125 -6.3024656563 -5.6786230720
-1.1401450000 -6.3207742500 -4.8172244080
-0.5420687500 -5.8408405000 -6.4484470809
-1.1271778125 -5.7536378438 -4.0596101200
-0.5903228125 -6.4319883750 -5.6507581392
-0.0108037500 -6.4615764063 -4.8850669840
-0.0178584375 -5.8998781563 -4.0863171440
0.5829590625 -6.5876450156 -5.6215371320
1.2009496875 -6.6355462094 -4.9081344960
1.0537687500 -6.1238140938 -4.0383170320
1.7483934375 -6.7011197313 -5.7114058792
-1.6507565625 -4.6278884375 -6.4254988568
-1.7422390625 -5.2163568750 -5.6476418880
-1.1284275000 -5.2073806250 -4.9155689440
-0.6012475000 -4.7191156250 -6.4551041498
-1.3054665625 -4.6346475000 -4.0764736240
-0.5472421875 -5.2894703125 -5.6496649904
0.0301671875 -5.3273371875 -4.8749385200
-0.1714893750 -4.7915303125 -4.0440418160
0.5954693750 -5.4736796250 -5.6705384336
1.1328215625 -5.5293390938 -4.8164990960
1.0928450000 -4.9750596875 -4.0104313760
1.6376953125 -5.5551283438 -5.7428118888
-1.7313412500 -4.0587028125 -5.6420945464
-1.1028021875 -4.1026568750 -4.9273811680
-1.1858056250 -3.5785540625 -4.0664487760
-0.5345168750 -4.1385484375 -5.6756894440
0.0162190625 -4.2213906250 -4.8220555040
-0.0599715625 -3.6814181250 -4.0040848960
0.5375537500 -4.3659109375 -5.7438765432
1.0345396875 -4.4075134375 -4.8160069200
1.1695193750 -3.8387040625 -4.0440029600
1.5969931250 -4.4470465625 -5.6540259288
-2.2094340625 -2.9798731250 -4.8668694240
-1.6741512500 -2.9679406250 -5.6599644208
-1.1121143750 -2.9779784375 -4.8061504480
-1.1333053125 -2.4057828125 -4.0293153920
-0.6076034375 -3.0275896875 -5.7006686712
0.4958706250 -3.2132959375 -5.6879303792
-0.0392778125 -3.1194753125 -4.8534900080
1.0691412500 -3.3051815625 -4.9077070800
1.1114290625 -2.7579662500 -4.0901379840
1.6518315625 -2.7809175000 -3.2126529360
1.6622859375 -3.3593346875 -5.6474463128
-1.6834634375 -5.7470937813 -3.2309152560
-1.6506625000 -6.3125531875 -2.4594941360
-0.5869903125 -5.8678310625 -3.2571819120
-0.5603303125 -6.4030345938 -2.3874033040
0.5093215625 -6.0146639688 -3.2167716720
0.5894896875 -6.5763044375 -2.4085798240
1.6329653125 -6.1636441875 -3.2761565920
-1.7467003125 -4.6323093750 -3.2948592800
-1.6612243750 -5.1799815625 -2.4004330160
-0.6566234375 -4.7164281250 -3.2173286080
-0.5276368750 -5.3055818750 -2.4527202400
0.4896221875 -4.8857406250 -3.3189111440
0.5862781250 -5.4273256250 -2.4656851920
1.7206181250 -5.0378665625 -3.2987189760
1.6586443750 -5.5945150000 -2.4773031360
-1.7115881250 -3.4952281250 -3.1905827280
-1.7375359375 -4.0951050000 -2.4097973120
-0.6414256250 -3.5504159375 -3.2399428000
-0.5752056250 -4.1354175000 -2.4877424480
0.5730690625 -3.7854646875 -3.2987319280
0.5234981250 -4.3413203125 -2.4763964960
1.7256975000 -3.9056496875 -3.2139869920
1.5724025000 -4.4933387500 -2.4841936000
-1.7086184375 -2.9209093750 -2.4282539120
0.0571362500 -2.5835340625 -4.0318539840
-0.6107075000 -2.9556721875 -2.4393019680
0.5907796875 -2.6508559375 -3.1863344720
0.4433165625 -3.2449681250 -2.4693635600
2.1678046875 -5.6912555938 -4.8428434640
2.1665146875 -4.5909218750 -4.9141960320
2.1813631250 -2.8915215625 -4.0844002480
-1.7412312500 -2.4040896875 -3.3036018800
-0.5491100000 -2.4553403125 -3.3038350160
1.6102156250 -3.3508690625 -2.4171799520
2.2383650000 -6.2422858125 -4.0155603680
2.2312700000 -4.0293553125 -4.1251860960
1.7086184375 -2.2446671875 -5.6684376192
0.4984775000 -6.0459531875 -6.4686280843
0.6372465625 -3.7735187500 -6.4686800477
0.5592687500 -2.6134593750 -6.4210513990
6.6769459375 -3.0131578125 -4.0587034800
2.2551081250 -3.4307281250 -4.9010368000
6.6839871875 -6.3739020938 -4.0039165200
6.6935546875 -5.3004756250 -4.0373067760
6.7033371875 -4.7545503125 -4.8783578480
6.6924125000 -3.6022981250 -4.7893387520
3.4121171875 -6.4062031563 -4.0458810000
4.9934690625 -6.5662639375 -6.4487847395
4.5132128125 -6.5940233938 -4.0888168800
5.5838993750 -6.5699901563 -4.0565534480
2.2904487500 -5.1240950000 -4.0506861920
2.7196559375 -5.7681436250 -5.6546359680
3.3011503125 -5.8612345938 -4.9054534320
3.3545509375 -5.3215993750 -4.0711374000
3.9087134375 -5.9492932188 -5.6416153224
4.4680359375 -6.0033307813 -4.8552255760
4.4529590625 -5.4380245625 -4.0924952480
5.0367781250 -5.9925162813 -5.6447095552
5.6216318750 -6.0169268438 -4.8804301680
6.1616715625 -5.3360178125 -6.4607807524
5.5992315625 -5.4593942188 -4.0677957840
6.1809006250 -5.9134554063 -5.6682938520
2.8032103125 -4.6135103125 -5.6279924088
3.3692246875 -4.7589443750 -4.8754566000
3.3153403125 -4.1880521875 -4.0913684240
3.9485153125 -4.8336568750 -5.6915647104
4.4830053125 -4.8471750000 -4.8444106560
4.4546925000 -4.3008196875 -4.0077503120
5.0312956250 -4.9227071875 -5.6992012096
5.5627353125 -4.8757028125 -4.8195946240
5.5943940625 -4.2814562500 -4.0559835600
6.1139415625 -4.7902403125 -5.6321137352
2.7677084375 -2.9682362500 -6.4729610204
2.8259062500 -3.5593115625 -5.6751286224
3.3711462500 -3.5995031250 -4.8177165840
3.3475365625 -3.0255875000 -4.0397935600
3.8846871875 -3.7081856250 -5.6964281864
4.4703740625 -3.7782353125 -4.9062435040
4.9771962500 -3.2050587500 -6.4324907350
4.4767971875 -3.2429659375 -4.0428502320
5.0581303125 -3.8013746875 -5.6880896888
5.5977534375 -3.7392665625 -4.8588650880
5.5334012500 -3.1726340625 -4.0345609520
6.1771515625 -3.7176187500 -5.6877801360
2.8221303125 -6.3470727813 -3.2742785520
3.9612943750 -6.4746107813 -3.2412250480
5.0404331250 -6.5382494375 -3.2189087520
6.1357640625 -6.5063192500 -3.2032627360
2.8504162500 -5.1719593750 -3.2010868000
2.7435075000 -5.7786920625 -2.4960705840
3.9313287500 -5.3656340625 -3.2214084880
3.8814353125 -5.9253905938 -2.4093051360
5.0201425000 -5.4737884688 -3.2783195760
5.0214056250 -5.9898395313 -2.3823131680
6.1299187500 -5.3293259375 -3.2204629920
6.1623300000 -5.9070470625 -2.4663198400
2.7849621875 -4.0510703125 -3.2324047360
2.7307284375 -4.6107825000 -2.4167525360
3.8686293750 -4.2834584375 -3.2478953280
3.9315437500 -4.8195340625 -2.3861469600
5.0414140625 -4.3917109375 -3.2417042720
5.0521237500 -4.9335512500 -2.4140196640
6.1717093750 -4.2315896875 -3.2770114240
6.1650443750 -4.7656093750 -2.4289662720
2.7381056250 -2.9952590625 -3.2879429120
2.7931590625 -3.5132881250 -2.3739332240
3.8938515625 -3.1575303125 -3.2474420080
3.9048837500 -3.7298871875 -2.4456873040
5.0040175000 -3.2040778125 -3.1773328320
5.0298578125 -3.8177012500 -2.4822248960
6.1181206250 -3.1778881250 -3.2423000640
6.1865443750 -3.6999350000 -2.3958868640
2.2576881250 -2.2906906250 -4.8335568800
2.7826912500 -2.4200131250 -5.7024508664
3.3184981250 -2.4801190625 -4.8537490480
3.8946578125 -2.5859796875 -5.6326214536
4.4667728125 -2.6735653125 -4.8549406320
5.0201425000 -2.6288453125 -5.6477390280
5.6278803125 -2.6544303125 -4.9145716400
6.1985306250 -2.6054640625 -5.6974863648
2.7853384375 -2.4564287500 -2.4464773760
3.8620718750 -2.6059612500 -2.4331627200
5.0233540625 -2.6104090625 -2.4245884960
6.1800137500 -2.5986512500 -2.4696614560
3.9396734375 -6.5132368750 -6.4561290416
6.0997784375 -6.4670992188 -6.4692440555
2.8259600000 -5.2051500000 -6.4082109158
3.8713303125 -5.4020147500 -6.4759000826
-4.5415793750 -2.2002159375 -4.8612482560
-5.6395494375 -1.7161837500 -4.0706193200
-5.1253178125 -2.2078618750 -5.6630858528
-4.4674850000 -1.6408128125 -4.0551157760
-3.9618184375 -2.0396109375 -5.6092547504
-3.3794909375 -2.0644300000 -4.8665067680
-2.8150487500 -1.3411162500 -6.4331098406
-3.3332525000 -1.5697418750 -4.0552193920
-2.8055215625 -1.9096837500 -5.6222443112
-6.7043044188 -1.3778812500 -4.9266170000
-6.1854451875 -0.7225343750 -6.4034176396
-6.1074552813 -1.3149937500 -5.6750237112
-5.5702724063 -1.1404809375 -4.8560156480
-5.1041806250 -0.5742650000 -6.4667943142
-5.6602566250 -0.6026046875 -4.0137211840
-4.9985350000 -1.1589709375 -5.6914597992
-4.4987406250 -1.0305218750 -4.7783554560
-4.5397921875 -0.4280515625 -4.0542738960
-3.9630278125 -0.9254675000 -5.6424092800
-3.4091071875 -0.9225515625 -4.7961515040
-2.7425131250 -0.2244600000 -6.4623848576
-3.3534759375 -0.3401165625 -4.0648815840
-2.8749665625 -0.7824925000 -5.6279522576
-6.1165847188 0.4348375000 -6.4723989295
-6.7022902719 0.3167890625 -4.0986604000
-6.1844548438 -0.1222812500 -5.6679014064
-5.5769938438 -0.0795096875 -4.9300751840
-5.5946399688 0.4415965625 -4.0537817200
-4.9828131250 -0.0219568750 -5.6681293616
-4.4393871875 0.1350200000 -4.8567021040
-4.4943734375 0.6663253125 -4.0193034960
-3.8679037500 0.1295240625 -5.6649872064
-3.3405087500 0.2752268750 -4.7816711680
-3.3808884375 0.8805593750 -4.0562037440
-2.8205043750 0.3385309375 -5.6673030240
-6.7148800000 1.4543540625 -4.0329419520
-6.1843769063 0.9817840625 -5.6486625056
-5.5865210313 1.0080275000 -4.8429082240
-5.5746221250 1.5921287500 -4.0938163520
-5.0618659375 1.1663481250 -5.6673833264
-4.4576621875 1.2045106250 -4.9150767680
-3.9096943750 1.8588093750 -6.4016618665
-4.4265812500 1.7248778125 -4.0527196560
-3.8573553125 1.2657856250 -5.6438106864
-3.2928593750 1.4359581250 -4.8795235280
-2.8315903125 2.0094706250 -6.4487589650
-2.7035712500 1.4343725000 -5.6702832792
-6.1755283125 -1.8901725000 -3.2474420080
-5.0705062500 -1.6732106250 -3.2857410720
-5.0803425000 -2.2128337500 -2.4059894240
-3.9188318750 -1.4788103125 -3.2694215520
-3.9953718750 -2.0384418750 -2.4283186720
-2.8129793750 -1.3352575000 -3.2279622000
-2.8253150000 -1.8950234375 -2.4118955360
-6.1995424688 -0.7074709375 -3.1831482800
-6.1584573125 -1.3112312500 -2.4710473200
-5.0623228125 -0.6073750000 -3.2274182160
-5.0096075000 -1.1493765625 -2.4113774560
-3.9342178125 -0.4232678125 -3.3051043120
-3.9033384375 -0.9469003125 -2.4150299200
-2.7884425000 -0.2181712500 -3.2947297600
-2.8456325000 -0.7502290625 -2.4411152480
-6.1721030938 0.4337087500 -3.2373783040
-6.1327312188 -0.1228053125 -2.4219074320
-5.0585065625 0.5852165625 -3.2029648400
-5.0002684375 -0.0100243750 -2.4853592800
-3.9103259375 0.6761884375 -3.2265504320
-3.8860175000 0.1224021875 -2.4371907920
-6.1143675313 1.4982678125 -3.2599536400
-6.1753388438 0.9709803125 -2.3877659600
-5.0213787500 1.7106071875 -3.2674658000
-5.0307581250 1.1685653125 -2.4302744240
-2.7640803125 1.9826359375 -3.2057365680
-3.9017662500 1.2887637500 -2.4889728880
-2.7901221875 0.8484437500 -3.2858317360
-2.7600490625 1.4047562500 -2.4526036720
-2.2552290625 -1.2879171875 -4.0537817200
-2.2759496875 -0.7442225000 -4.8833314160
-6.1436263438 2.0408337500 -5.6710098864
-5.6196834375 2.1870875000 -4.8113053440
-3.3189012500 1.9611896875 -4.0265954720
-6.1857905313 2.0690121875 -2.4805022800
-3.8989443750 1.8816800000 -3.2087155280
-2.8000793750 0.3188584375 -2.4144470800
-2.2688143750 0.3679053125 -4.8358882400
-5.0735700000 2.2390234375 -2.3995652320
-3.8813546875 -1.4862412500 -6.4522291944
-5.0371946875 0.5783903125 -6.4053525389
-3.9625037500 0.7153050000 -6.4570836040
-2.2107106250 -1.8646143750 -4.8507441840
-2.2105896875 0.9435006250 -4.0504660080
1.7018325000 -2.2238256250 -2.3871442640
-1.6635087500 1.0163721875 -3.2358629200
-1.7139531250 -1.2473493750 -6.4408603174
-1.6874006250 -1.8520503125 -5.6986831296
-1.1297443750 -1.2487603125 -4.0368923120
-0.6030078125 -1.8972137500 -5.6853335032
-0.5459656250 -1.3226934375 -3.2466519360
-1.1427384375 -1.8381559375 -4.8372482000
-0.0543009375 -2.0328921875 -4.8892763840
-0.0159368750 -1.4799659375 -4.0855788800
0.5615531250 -2.0544862500 -5.6272165840
1.1423353125 -2.1784875000 -4.8828133360
1.0589421875 -1.6361768750 -4.0657364160
-2.1737709375 -0.2032421875 -4.0338744960
-1.7059981250 -0.6862934375 -5.6544235552
-1.1323109375 -0.7347893750 -4.9006093840
-0.5714431250 -0.2084425000 -3.2102309120
-0.5342884375 -0.7649834375 -5.6476924008
0.0210700000 -0.8936878125 -4.8532439200
0.5767106250 -0.9757506250 -5.6788536176
-0.0442765625 -0.3334650000 -4.0805794080
1.1285753125 -1.0424543750 -4.8227290080
1.1073306250 -0.4837231250 -4.0109106000
1.6501115625 -1.1154200000 -5.7157681128
-1.6900075000 0.4824600000 -5.6241819304
-1.1098703125 -0.1405831250 -4.0895940000
-1.1140896875 0.4221390625 -4.8822823040
-0.5341137500 0.3263028125 -5.6603711136
0.0274931250 0.2641006250 -4.8429600320
0.0255178125 0.7963331250 -4.0458550960
0.5585028125 0.1263259375 -5.6984344512
1.0989321875 0.0524600000 -4.8572072320
1.6642612500 0.0047971875 -5.6591121792
1.1906431250 0.6392621875 -4.0973911040
2.2303293750 -0.0809071875 -4.8598623920
-2.1926640625 1.5312031250 -4.8173927840
-2.2038037500 2.1129393750 -4.0305199280
-1.6378834375 1.5460381250 -5.6759730928
-1.0922671875 0.9829800000 -4.0759555440
-0.5137290625 2.0092287500 -6.4497767332
-1.1037159375 1.5993312500 -4.7314692160
-0.5905781250 1.4366031250 -5.6632490480
0.0101587500 1.3475528125 -4.9030573120
0.0067053125 1.9154215625 -4.0545199840
0.6058028125 1.2720071875 -5.6576498984
1.1607850000 1.1941771875 -4.8843934800
1.7710087500 1.0818396875 -5.6424390696
-1.6931921875 -1.2787662500 -3.2410955280
-0.5924862500 -0.7952715625 -2.4127762720
0.5321115625 -1.4959296875 -3.2118628640
0.5090796875 -2.0666740625 -2.4350666640
1.6262734375 -1.7047484375 -3.2802494240
-1.7559453125 -0.6864278125 -2.4701147760
-0.5303378125 0.3639815625 -2.4218815280
-0.5562453125 0.9018040625 -3.2274441200
0.5058143750 -0.4026681250 -3.2657561360
1.6858687500 -0.5921771875 -3.2692790800
-1.6603106250 1.5770250000 -2.4122322880
-1.6264346875 -0.0960243750 -3.2123679920
-0.5522409375 1.5054837500 -2.4896334400
-1.7234937500 0.4685521875 -2.4228658800
0.5127078125 1.2349196875 -2.4223089440
0.5957650000 0.7009268750 -3.3059850480
1.6829393750 0.5199237500 -3.2112800240
1.6321456250 -0.0502025000 -2.4289403680
-1.6077565625 2.0969621875 -3.3687763440
0.5152206250 1.8036484375 -3.2180150640
1.0779293750 1.7716671875 -4.0951763120
1.6884487500 1.1003162500 -2.4481352320
2.1985496875 -1.1844081250 -4.8706773120
1.6014812500 1.6662231250 -3.2240506960
2.1737037500 1.5681562500 -4.0304422160
1.6893356250 2.2206812500 -5.7036800112
-1.6566556250 -1.8423618750 -2.4569166880
-0.6164721875 -1.9072381250 -2.4557121520
0.6048890625 -0.9346453125 -2.4053159200
0.5662428125 0.1651603125 -2.4531735600
1.6864196875 -1.1505993750 -2.4419182720
-0.6980512500 2.0189709375 -3.5091242160
-0.5909678125 -1.3076971875 -6.4554627907
2.2222265625 -1.7243134375 -4.0289915920
-1.6739631250 -0.0846025000 -6.4125428417
0.5966787500 0.7092446875 -6.4558051121
0.5582475000 1.8246109375 -6.4728771174
6.7186559375 -0.2803868750 -4.8511456960
2.2585346875 -0.6090412500 -4.0635734320
2.2420200000 0.5189696875 -4.0798281920
6.6583484375 -1.8913818750 -4.0076207920
6.7136437500 -0.8459578125 -4.0589236640
6.7016037500 0.9003125000 -4.8433744960
3.3582731250 -1.9034218750 -4.0476813280
5.0598906250 -2.0875290625 -6.4662682040
4.4622712500 -2.1009128125 -4.0966398880
6.1206871875 -1.9933053125 -6.4213423010
5.5758368750 -2.1191206250 -4.0390552960
2.7966125000 -0.7448271875 -3.2091040880
2.7673725000 -1.2637968750 -5.6726081632
3.3312771875 -1.3597137500 -4.8813886160
3.3351471875 -0.8022859375 -4.0491060480
3.9004896875 -1.5178462500 -5.6744952696
4.4499893750 -1.4886600000 -4.8352147360
4.4658859375 -0.9382331250 -4.0237978400
4.9955250000 -1.5048656250 -5.6637593568
5.5759443750 -1.5758290625 -4.8691878320
5.6154506250 -0.9967668750 -4.0991007680
6.1346621875 -1.4127784375 -5.6586381360
2.7965453125 0.4570631250 -6.3460253848
2.8027534375 -0.1133050000 -5.6695592624
3.3871771875 -0.2761675000 -4.8602768560
3.9286278125 0.2537403125 -6.4659595578
3.3615384375 0.3025050000 -4.0470078240
3.9305493750 -0.3522775000 -5.7161994144
4.4625668750 -0.3998596875 -4.8916077440
4.4914709375 0.1366862500 -4.0167260480
5.0659643750 -0.4172343750 -5.6829050032
5.5586234375 -0.4002090625 -4.8103468960
5.6298959375 0.2037125000 -4.0826646800
6.1315178125 -0.3274046875 -5.6355783952
2.3635756250 1.0457331250 -4.9920634560
2.7853250000 1.3864678125 -6.3154133328
3.2689809375 0.8339715625 -4.9591135680
3.3729334375 1.3653171875 -4.0425393840
3.8314478125 0.8159921875 -5.6587857888
4.4331253125 0.6636243750 -4.8673227440
4.9866965625 1.2862643750 -6.4503001235
4.4544237500 1.2463818750 -4.1357808320
4.9876237500 0.7183553125 -5.6754109760
5.5628965625 0.7526075000 -4.8792644880
6.1392578125 1.3079659375 -6.4183959800
5.5768850000 1.2953750000 -4.0146278240
6.1409106250 0.7229375000 -5.6715525752
2.7835646875 -1.8939618750 -3.2580496960
3.9202831250 -2.0476868750 -3.2379352400
4.9886046875 -2.0667143750 -3.2448257040
6.1064703125 -2.0083284375 -3.1948309840
2.8147262500 -0.1754668750 -2.4136440560
2.7539081250 -1.3288881250 -2.4553754000
3.8906400000 -0.9319578125 -3.2352671280
3.8968884375 -1.4819412500 -2.4307147920
5.0623765625 -0.9815287500 -3.2761177360
5.0363481250 -1.4996787500 -2.4106391920
6.1376453125 -0.8356378125 -3.2450717920
6.1531521875 -1.4205587500 -2.4486403600
2.7852981250 1.5328021875 -3.2969316000
2.7603850000 0.3593993750 -3.2430512800
3.9023978125 0.2406656250 -3.2559903280
3.9572093750 -0.3439596875 -2.4846210160
5.0815518750 0.1567618750 -3.2678932160
4.9968284375 -0.4023725000 -2.4693376560
6.1940021875 0.2030809375 -3.2463281360
6.1265459375 -0.3278212500 -2.3586369120
3.9397271875 1.3774243750 -3.2442040080
3.9000059375 0.7865371875 -2.4512825680
4.9831490625 1.2713890625 -3.2563270800
5.0230853125 0.7052671875 -2.4343154480
6.1611475000 1.3320862500 -3.2383238000
6.1220712500 0.7741209375 -2.4578751360
6.7052856250 1.9966781250 -4.8745629120
2.2411196875 2.1416687500 -4.8381159840
2.7980503125 2.0257300000 -5.7409014688
3.2895671875 1.9573734375 -4.8148800960
3.8777265625 1.8548856250 -5.6147800736
4.4579712500 1.8526012500 -4.8404214400
5.0149825000 1.8447671875 -5.6372893544
5.6360637500 1.8100715625 -4.8905845360
6.1686725000 1.9248143750 -5.7319464560
3.8576509375 1.8842868750 -2.3687006160
5.0855428125 1.7994290625 -2.3966510320
6.1868937500 1.9190362500 -2.4782615840
2.8197787500 0.9682390625 -2.4997878080
2.7510728125 2.0846937500 -2.4726145120
2.7922587500 -0.7133834375 -6.4726833036
3.9067650000 -0.9211406250 -6.4364750292
-6.1902316250 6.5245512500 -5.6928365968
-5.6509027813 6.6664243750 -4.8506276160
-6.1505587500 6.5517487500 -2.4507256320
-3.8877106250 2.9816200000 -3.2625958480
-5.5615286250 2.7591353125 -4.0246267680
-5.0635993750 2.2480265625 -5.6384161784
-4.4841609375 2.2988068750 -4.8234154640
-4.4358800000 2.9011965625 -4.0915886080
-3.9548981250 2.4454637500 -5.6664805720
-3.3632046875 2.5053009375 -4.8976822320
-2.7662437500 3.1758859375 -6.4056921403
-2.7799231250 2.5814646875 -5.6688002752
-6.1760617813 3.7895093750 -6.4407020439
-6.1289472188 3.1966334375 -5.7146788496
-5.5900860000 3.3039050000 -4.8720502240
-5.5932317188 3.8306684375 -4.0005360480
-5.0072290625 3.3159718750 -5.6630379304
-4.4797400000 3.4927018750 -4.8298396560
-4.4640718750 4.0429943750 -4.0180601040
-3.9117234375 3.5383490625 -5.6495289944
-3.3666715625 3.6212046875 -4.8331294640
-3.3439084375 4.1994203125 -4.0585092000
-2.8223990625 3.7871175000 -5.6777902584
-6.6698337375 4.2148062500 -4.8532827760
-6.1876852188 4.9186893750 -6.4687444709
-6.1129243438 4.3572303125 -5.6568468744
-5.5364112500 4.3704259375 -4.8590464160
-5.0736103125 5.0726025000 -6.4537611570
-5.6191620625 4.9456315625 -4.0774320720
-5.0025796875 4.4842146875 -5.7157292568
-4.4590596875 4.5982453125 -4.8739541680
-4.4882996875 5.1095018750 -4.0061572160
-3.8915537500 4.6351312500 -5.6727480448
-3.3534490625 4.7842606250 -4.8293604320
-3.3745190625 5.3451150000 -4.0361799520
-2.7962631250 4.8683256250 -5.6389148304
-6.6742147656 5.9307884375 -4.0461659440
-6.1494353750 5.4439343750 -5.5966472736
-5.5512758125 5.5076415625 -4.8673356960
-5.5770355000 6.0889478125 -4.0897235200
-4.9952025000 5.6366012500 -5.6673898024
-4.4301018750 5.6726809375 -4.8550572000
-4.4853568750 6.2356315625 -4.0696090640
-3.9017393750 5.7872087500 -5.7048741856
-3.3447146875 5.9126881250 -4.8735397040
-3.3565665625 6.4360250000 -4.0392625280
-2.7707318750 5.9498159375 -5.6509666664
-6.1323455625 2.6470934375 -3.2465483200
-4.9702893750 2.7714306250 -3.2539827680
-3.9180928125 2.4496562500 -2.4033601680
-3.2988121875 3.0298068750 -4.0500515440
-2.7878378125 3.2052200000 -3.2020582000
-6.1969342500 3.7912696875 -3.2559903280
-6.1258727188 3.2257525000 -2.4715654000
-5.0256653125 3.9367440625 -3.2248666720
-5.0473668750 3.3494715625 -2.4788185200
-3.8736146875 4.0666846875 -3.2446961840
-3.9391090625 3.5271287500 -2.4088129600
-2.7499575000 4.3082506250 -3.2829563920
-2.8221840625 3.7651875000 -2.4029716080
-6.1589155313 4.8684868750 -3.2231570080
-6.1102113125 4.3205459375 -2.3789326960
-5.0810546875 5.0837421875 -3.2388548320
-4.9932809375 4.5204153125 -2.4525648160
-3.9274453125 5.2513346875 -3.2152174320
-3.8910700000 4.6626243750 -2.4950991840
-2.7874346875 5.3626106250 -3.2767782880
-2.7998106250 4.8290343750 -2.4016634560
-6.1191795000 5.9764759375 -3.2338294560
-6.1589518125 5.4252428125 -2.4037357760
-5.0355150000 6.1670734375 -3.2354355040
-5.0018003125 5.6246687500 -2.3836990320
-3.9415546875 6.3840621875 -3.2373912560
-3.8727546875 5.8414290625 -2.4344967760
-2.8162312500 6.5293081250 -3.2285450400
-2.7536528125 5.9446828125 -2.4887138480
-2.2743775000 3.7183712500 -4.8672838880
-2.2510634375 6.6408931250 -4.0112214480
-2.7603984375 2.5974821875 -2.4987775520
-2.2398028125 4.8913037500 -4.8011768800
-6.7166833394 2.5261425000 -3.9982305920
-6.6516877375 3.0625943750 -4.8443199920
-6.6917121375 4.8148578125 -4.1061984640
-6.1442726875 2.6051818750 -6.4598632327
-5.0210428125 3.8844050000 -6.4541827446
-3.8935693750 5.2045856250 -6.4630123820
-5.0369528125 6.2078562500 -6.4756254579
-3.9307509375 6.3863868750 -6.4470463221
-2.8040837500 6.5241481250 -6.4341443168
1.7494281250 6.7145306250 -2.4584450240
1.1686325000 2.3326290625 -4.8967237840
-2.2244303125 2.6463275000 -4.9097923520
-2.2300875000 3.1856012500 -4.0185522800
-1.6205356250 2.6516890625 -5.6563831928
-1.1218162500 2.5129603125 -4.6759051360
-1.1324990625 3.1795543750 -4.1051104960
-0.6127634375 2.5840984375 -5.6575359208
-0.0147946875 2.4727150000 -4.8818937440
-0.0067590625 3.0675125000 -4.0987122080
0.5410878125 2.3838931250 -5.6356496312
1.1509890625 3.4058956250 -4.8558602240
-2.1834459375 4.2916418750 -4.0840246400
-1.6858956250 3.7626612500 -5.6245018448
-1.1014987500 3.7336765625 -4.8723869760
-1.0926434375 4.3065037500 -4.0654126160
-0.5350140625 3.6212315625 -5.6306799488
0.5239146875 4.0858465625 -6.4727156318
-0.0247787500 4.1272878125 -4.0024529440
0.0702915625 3.6203312500 -4.8871393040
0.6199928125 3.5022693750 -5.7125119800
1.1699225000 3.9561478125 -4.0266213760
1.7091156250 3.4025900000 -5.7222868544
-1.6706709375 5.4491481250 -6.4619754449
-2.2391981250 5.5116996875 -4.0886355520
-1.7076912500 4.8910081250 -5.6413161312
-1.1006387500 4.8650871875 -4.9072149040
-1.0949143750 5.3689128125 -4.0133326240
-0.5123584375 4.7797321875 -5.6755599240
0.0284606250 4.6927378125 -4.8589039440
0.0274393750 5.2243253125 -4.0244713440
0.5931581250 4.6617240625 -5.7191472896
1.0852528125 4.5228206250 -4.8135460400
1.1797587500 5.1284890625 -4.0992302880
1.6383671875 4.4707234375 -5.6473737816
-2.2149837500 6.0810331250 -4.8547981600
-1.6432450000 6.0159956250 -5.6643590344
-1.1095746875 5.9466446875 -4.8424549040
-1.0900768750 6.5084396875 -4.0644930240
-0.5401740625 5.9429359375 -5.7038069408
-0.0305971875 5.8002565625 -4.8199572800
0.6051981250 6.3138512500 -6.4749740280
0.0440884375 6.3957528125 -4.0953576400
0.5246806250 5.7507796875 -5.6438896936
1.1215609375 5.6876234375 -4.9011792720
1.6401140625 6.1287765625 -6.4420761216
1.0915012500 6.2403615625 -4.0803980800
1.7013756250 5.5682581250 -5.6421968672
-1.6615603125 3.2329953125 -3.2122773280
-1.6550296875 2.6185387500 -2.4479150480
-0.5724643750 3.0244990625 -3.2479730400
-0.5760790625 2.4659290625 -2.4143046080
1.0617909375 2.8472181250 -4.0160784480
0.5520796875 2.3842425000 -2.4699464000
1.6765834375 2.8277068750 -3.2916342320
-1.6645703125 4.3279634375 -3.2202039520
-1.6897790625 3.7618012500 -2.4004071120
-0.5774228125 4.1611906250 -3.1964629360
-0.5216840625 3.5799650000 -2.4423845440
0.6035050000 4.1109612500 -3.2793039280
0.6058700000 3.5526062500 -2.4863047760
1.7731453125 3.9347821875 -3.2665332560
1.6536993750 3.3797865625 -2.4540802000
-1.6800906250 5.4294353125 -3.2749132000
-1.6874140625 4.9042709375 -2.4211950720
-0.5173437500 5.4016331250 -3.2244133520
-0.5487875000 4.7998481250 -2.5212233680
0.6291437500 5.2075956250 -3.2684112960
0.5283087500 4.6636725000 -2.4365172880
1.6989031250 4.9940603125 -3.2108396560
1.6344165625 4.4620025000 -2.3712780640
-1.6436212500 6.5648234375 -3.2792780240
-1.6797681250 6.0156059375 -2.4780025440
-0.5005468750 6.4974343750 -3.2767005760
-0.6017446875 5.9730762500 -2.4118955360
0.5573471875 6.2843559375 -3.1919556400
0.5418403125 5.7367778125 -2.3740886480
1.6256821875 6.1370003125 -3.2047004080
1.7249315625 5.5661618750 -2.4172058560
2.1697665625 6.0682675000 -4.0319316960
0.5020250000 2.9521784375 -3.2258898800
1.7011203125 2.2660328125 -2.4967440880
2.1972462500 3.2341912500 -4.8209416320
2.2308937500 4.4137484375 -4.8907140560
2.2359462500 4.9727081250 -4.0954094480
-1.6953690625 3.2185231250 -6.4700918416
-0.5903900000 4.1993934375 -6.4329934021
0.5387496875 2.9184234375 -6.4601616468
1.6618290625 2.7853653125 -6.4504914246
-1.6332743750 4.3220106250 -6.4414713927
-0.5694409375 5.3527475000 -6.4524044350
6.7037000000 6.5081440625 -4.8251251280
6.6980293750 3.6490203125 -4.0776652080
2.2600262500 2.6698834375 -4.0062349280
2.2817009375 6.6211668750 -4.8321451120
2.8019068750 6.5535225000 -5.7372451192
3.3256871875 6.4579281250 -4.8227808160
3.8650818750 6.3554537500 -5.6459775560
4.4582937500 6.2895293750 -4.8998970240
5.0570821875 6.3074281250 -5.6477001720
5.6281356250 6.3179631250 -4.8780858560
6.1896081250 6.3875156250 -5.7223101680
2.8269140625 6.5143656250 -2.4768886720
3.8944025000 6.3894237500 -2.4638848640
5.0173340625 6.3205296875 -2.4311163040
6.1771515625 6.3680446875 -2.4209878400
6.6777253125 5.3878328125 -4.8774771120
3.4215100000 2.5258737500 -4.0731061040
4.5011325000 2.4309781250 -4.0894256240
5.5625337500 2.3765831250 -4.0696997280
2.3079175000 3.8292843750 -4.1095918880