ITEM: TIMESTEP
118000
# source: voids-relax.118000.cfg
ITEM: NUMBER OF ATOMS
2298
ITEM: BOX BOUNDS pp pp pp
-6.7187500000 6.7187500000
-6.7187500000 6.7187500000
-6.4760000000 6.4760000000
ITEM: ATOMS x y z
-6.7187465326 -6.2129302500 -4.1088018160
-6.1054544375 -6.6194859781 -5.6803974960
-5.5439846250 -6.6131660531 -4.8487366240
-5.6705067500 -6.0369970938 -4.0588848080
-5.0327468750 -6.5144959688 -5.7408328232
-4.5132934375 -6.3795955625 -4.8163566240
-3.8743403125 -5.2595718750 -5.7197573288
-4.5244331250 -5.8268735625 -4.0000179680
-3.9575721875 -6.3806584688 -5.6455617968
-3.3891659375 -6.2762141563 -4.8447862640
-3.3356040625 -5.7281643750 -4.0250023760
-2.8210687500 -6.2505565938 -5.6385547648
-6.6568109188 -5.1024471875 -4.0501551600
-6.1700780625 -5.5376595938 -5.6242039488
-5.5737500313 -5.4956633750 -4.9026039920
-5.5946251875 -4.9319118750 -4.1116901120
-4.9807706250 -5.3817523438 -5.6512671528
-4.4181021875 -5.2848209375 -4.8587096640
-3.9940012500 -4.6808321875 -6.4574505342
-4.5300903125 -4.7371218750 -4.0404670640
-3.3791818750 -4.6004087500 -3.9998495920
-2.8004287500 -5.1778046875 -5.6718064344
-6.2349637188 -4.4248343750 -5.6248580248
-5.0460096875 -4.2479834375 -5.7059051648
-5.5823097188 -3.8332753125 -4.0700623840
-4.4844968750 -4.2005221875 -4.8919056400
-3.9179046875 -4.1047531250 -5.6996713672
-4.4776034375 -3.6356768750 -4.0698292480
-3.3748146875 -4.0694796875 -4.8532309680
-3.3695203125 -5.1511984375 -4.8257079680
-2.8173331250 -3.5093375000 -6.4315658326
-3.9435165625 -3.5145109375 -3.2019027760
-2.8167418750 -4.0986121875 -5.6652475416
-6.2138010000 -3.3391784375 -5.6497167984
-5.6536843438 -3.2423343750 -4.8309146720
-5.6258512500 -4.3600790625 -4.9160611200
-5.5861756875 -2.6678409375 -4.0590013760
-5.1030384375 -3.1405184375 -5.6517994800
-4.5256425000 -3.0822400000 -4.8776843440
-3.9231587500 -2.4023428125 -6.4447175525
-4.4390915625 -2.5208078125 -4.0633791520
-3.9467684375 -2.9861618750 -5.6427395560
-3.3517559375 -2.9553362500 -4.9000524480
-3.3785234375 -2.3879243750 -4.0778465360
-2.7654375000 -2.9351262500 -5.6467715136
-6.2096219375 -6.0937880000 -3.1864121840
-6.0811097188 -6.6759338250 -2.4555826320
-5.1133718750 -5.9461045000 -3.2467685040
-4.9944634375 -6.5256571563 -2.4747256880
-3.9192215625 -5.8074630938 -3.2840573120
-3.9295281250 -6.3246550000 -2.4238761360
-2.7477537500 -5.7293025313 -3.2487631120
-2.8095393750 -6.2806297188 -2.4378513440
-6.1249764375 -4.9753015625 -3.2228073040
-6.1951739375 -5.5179508125 -2.3896569520
-5.0836078125 -4.8036375000 -3.1916706960
-4.9918162500 -5.3967862188 -2.4303003280
-3.9689134375 -4.6440403125 -3.2424166320
-3.9082296875 -5.2331000000 -2.4833517200
-2.7742121875 -4.0797056250 -2.4249511520
-6.1708547500 -3.8930990625 -3.2816741440
-6.2143129688 -4.4225231250 -2.4009381440
-5.0356762500 -3.6883653125 -3.2410437200
-5.0830031250 -4.2376903125 -2.4066758800
-3.9043462500 -4.1034631250 -2.4226975040
-3.3888165625 -3.4894365625 -4.0658918400
-6.1541600000 -2.8230978125 -3.2639687600
-6.1554701563 -3.3516618750 -2.4071551040
-5.0231793750 -2.5734156250 -3.2706001840
-5.0750481250 -3.1349821875 -2.4362582480
-3.9029621875 -2.4112250000 -3.2118758160
-3.9584725000 -2.9625253125 -2.3910816720
-2.8355140625 -2.3782225000 -3.2162406400
-2.8646600000 -3.5012481250 -3.2027317040
-2.2775218750 -5.2129303125 -4.7982497280
-2.7821000000 -4.6271896875 -3.2584900640
-2.3056600000 -3.5266181250 -4.0393531920
-6.1167903125 -2.2504990625 -5.6934893776
-2.8618515625 -5.1758562500 -2.4333310960
-2.7583828125 -2.9330971875 -2.4123359040
-2.2497062500 -6.3732651563 -4.8573238000
-2.2433100000 -4.0791412500 -4.8777620560
-2.2825206250 -2.4336387500 -4.0309732480
-6.1690339688 -2.2485640625 -2.4687936720
-6.7116199819 -2.2642725000 -4.8788370720
-5.1747006250 -4.8438156250 -6.4580028074
-6.1563355313 -5.0049312500 -6.4694567014
-3.9500606250 -3.5110978125 -6.4636214239
-2.8557509375 -2.3900743750 -6.4652534018
-1.6926681250 -4.7603553125 -3.2121737120
-1.7357084375 -5.2982181250 -5.6501493952
-2.2180609375 -4.6211025000 -4.0713446320
-2.2003771875 -5.8082962188 -4.0654514720
-1.6861106250 -6.3823448750 -5.6614461296
-1.1267612500 -6.4867246875 -4.8160975840
-0.5451593750 -6.0347167500 -6.4212772819
-1.0820681250 -5.8976381250 -4.0633143920
-0.6003606250 -6.6269488969 -5.6650260624
-0.0138675000 -6.6215853188 -4.8811166240
0.5020250000 -6.1789454688 -6.4294040143
-0.0025800000 -6.0669828750 -4.0473963840
1.0504496875 -6.2868190313 -4.0447153200
-1.6924531250 -4.7321096875 -6.4556344047
-1.1340309375 -5.3514306250 -4.8958041920
-0.5570650000 -5.4652610313 -5.6418912000
-0.4925650000 -4.3122953125 -5.6910751248
-1.1356837500 -4.8004796875 -4.0546236000
-0.6271012500 -4.8946362500 -6.4270143703
0.0434837500 -5.5351897813 -4.9130044480
-0.0587084375 -5.0048237500 -4.0378119040
0.6299768750 -5.6019875938 -5.6635054976
1.1746928125 -5.7230043750 -4.8216021840
1.0940409375 -5.1514000000 -4.0355323520
-1.7506643750 -3.6301137500 -6.4560772336
-1.6572603125 -4.1755015625 -5.6389044688
-1.0731993750 -4.2570403125 -4.8858700080
-1.1792212500 -3.7194328125 -4.0286030320
0.0176031250 -4.4319696875 -4.8076917360
1.2006675000 -4.0276890625 -4.0331621360
0.0230184375 -3.8618434375 -4.0131253920
0.5461940625 -4.5079453125 -5.7206717400
1.7352515625 -4.0942450000 -6.4138802652
1.0667359375 -3.4872865625 -4.9015419280
1.0799584375 -4.5778068750 -4.8257856800
-2.1900571875 -2.9882446875 -4.8645380640
-1.6349809375 -3.0385815625 -5.6905220744
-1.1138612500 -3.1411500000 -4.7971229040
-1.0889615625 -2.5702712500 -4.0124000800
-0.5951200000 -3.2320412500 -5.7157642272
-0.0620946875 -3.3016878125 -4.8200349920
0.4933846875 -3.3897840625 -5.6591704632
1.1561087500 -2.9473409375 -4.0946323280
1.6525840625 -2.9913621875 -6.4505572207
1.6950868750 -2.9924371875 -3.2119276240
1.6991046875 -3.5396390625 -5.6058276512
-1.6413771875 -5.8318669375 -3.2395801440
-1.7024506250 -6.3921099063 -2.4168561520
-0.5595912500 -6.0589499375 -3.2008666160
-0.5689975000 -6.6176381875 -2.3831291440
0.5325281250 -6.1850165313 -3.1700797120
1.6387837500 -6.3267740938 -3.2565472640
-1.7076375000 -5.2942137500 -2.3700605760
-0.5889118750 -4.8900137500 -3.1894559040
-0.5471481250 -5.4797883125 -2.4303132800
0.5226650000 -5.0415887500 -3.2574150480
0.6154509375 -5.5954395000 -2.4444180080
1.6795531250 -5.2370237500 -3.2856504080
1.7193146875 -5.7775485313 -2.4201459600
-1.7364743750 -3.6009543750 -3.2276643040
-1.6493859375 -4.1735800000 -2.4413872400
-0.5824081250 -3.7672971875 -3.2889402160
-0.5330925000 -4.3118653125 -2.4410893440
0.6053728125 -3.9419175000 -3.2716752000
0.5583953125 -4.4806134375 -2.4386543680
1.7469825000 -4.1142265625 -3.1947532720
1.6263406250 -4.6920659375 -2.4424104480
-1.6437556250 -3.0387293750 -2.4479409520
0.0885396875 -2.7374203125 -4.0348199920
-0.5750175000 -3.2168300000 -2.4577326640
0.6297350000 -2.8103725000 -3.2043248000
0.4828093750 -3.3830653125 -2.4470861200
2.2135593750 -6.4589265313 -4.0173736480
1.6972368750 -5.7972505938 -5.7137501912
2.2060612500 -4.7784556250 -4.9001042560
1.1654478125 -2.3574346875 -4.8474932320
1.7346871875 -2.4304540625 -5.6469929928
-1.6962425000 -2.4854537500 -3.2743044560
-0.5130168750 -2.6605578125 -3.2660410800
0.5178543750 -2.2606712500 -2.3715889120
1.6085225000 -3.5463040625 -2.3981405120
1.7062668750 -2.4394571875 -2.3694777360
1.6165043750 -4.6801737500 -5.6700138776
2.2284481250 -5.8780610313 -4.8016690560
2.2301681250 -3.0909475000 -4.0739997920
0.5939778125 -2.2407971875 -5.6043809128
0.6017850000 -2.8128450000 -6.4139026722
6.6605521875 -5.6395131563 -4.9085619120
6.1215606250 -5.6922728125 -5.7825356728
6.6360959375 -4.5599350000 -4.8354867280
6.7186559375 -3.9577334375 -4.1143711760
6.6603371875 -3.3643468750 -4.8377921840
6.6974515625 -2.8144306250 -4.0277741040
3.9756859375 -6.5450528438 -6.4564849626
3.4387906250 -6.5535372813 -4.0161691120
4.5085096875 -6.5280140938 -4.0366203200
5.0431609375 -6.4522588438 -6.4044153322
5.6139590625 -6.3180975000 -4.0791805920
2.7987893750 -4.8385346875 -5.6248696816
3.3059475000 -6.0148601563 -4.8466254480
2.8195503125 -5.3995986875 -3.2129119760
3.8824834375 -6.0075380625 -5.6227326016
4.4801968750 -6.0003584063 -4.8764798080
4.9845062500 -4.6601518750 -5.6646077128
4.4734243750 -5.4411057813 -4.0448059840
5.0141896875 -5.8049019063 -5.6757127576
5.6072403125 -5.7460295313 -4.9029925520
5.5923650000 -5.2367550000 -3.9966634000
2.2562100000 -4.2040159375 -4.1077915600
3.4044981250 -4.8945153125 -4.8844970960
3.3586225000 -5.4441171250 -4.0502199200
3.3173962500 -4.3253565625 -4.0926118160
3.9423878125 -4.8972968750 -5.6792460632
4.4760581250 -4.8677075000 -4.7759722880
4.4497609375 -4.2611387500 -4.0322554960
5.5639312500 -4.7002762500 -4.8182994240
5.6082078125 -4.1098996875 -4.0129699680
6.2247471875 -5.0317525000 -6.4519755942
2.3035234375 -3.6438065625 -4.9031997840
2.8262018750 -2.6223550000 -5.7072612392
2.9219843750 -3.7283821875 -5.6427188328
3.4900278125 -3.7507287500 -4.8461721280
3.3378750000 -3.1908553125 -4.0475906640
4.6631350000 -3.7201987500 -4.9995756160
4.4558884375 -2.6198018750 -4.7820856320
5.0497721875 -3.2339493750 -6.3004188024
5.5603300000 -3.5670650000 -4.9187551360
6.0959756250 -3.5947731250 -5.7225044480
5.6058831250 -3.0445881250 -4.0163504400
6.0791250000 -4.5302918750 -5.7182691440
2.8183275000 -6.5088750625 -3.3061275200
3.9756321875 -6.5886803750 -3.1791202080
5.0894800000 -6.4918551250 -3.2335574640
6.1812500000 -6.2936412500 -3.2385828400
2.2678468750 -5.2929103125 -4.0269969840
2.7705840625 -5.9742144063 -2.4359603520
3.9226212500 -5.4329250313 -3.2245040160
3.8857353125 -6.0146276875 -2.4363100560
5.0181134375 -5.3640887500 -3.2069540560
5.0535346875 -5.9286008125 -2.4216872480
6.1974421875 -5.1822793750 -3.2874895920
6.1193165625 -5.7184490625 -2.4092921840
2.8015037500 -4.2769950000 -3.2125881760
2.7580871875 -4.8381046875 -2.4044092800
3.8672587500 -4.3520568750 -3.2497863200
3.9088075000 -4.8811046875 -2.3937756880
5.0219834375 -4.2292515625 -3.2514312240
5.0351521875 -4.7627203125 -2.4576031440
6.1860471875 -4.0645078125 -3.2364328080
6.1317462500 -4.6468218750 -2.4419053200
2.7739837500 -3.2098156250 -3.2262525360
2.8334446875 -3.7231415625 -2.3563185040
6.1539450000 -2.9222262500 -3.1990921920
3.9719100000 -3.7831534375 -2.4480186640
4.4660740625 -3.2352528125 -4.0509970400
5.0342518750 -3.6202909375 -2.4999432320
5.0136925000 -3.0287856250 -3.2592930880
6.1267071875 -3.5025515625 -2.4394314880
2.2971406250 -2.5067925000 -4.8408100000
3.3690096875 -2.6282943750 -4.8550960560
4.0429406250 -3.7796462500 -5.6549040744
3.9156471875 -2.6653012500 -5.6628501264
5.6074015625 -2.4705784375 -4.8589298480
6.1866921875 -2.4192068750 -5.6627361488
2.8069728125 -2.6039187500 -2.4894003040
3.8929646875 -3.2140753125 -3.2395671920
5.0542737500 -2.5218425000 -2.3745808240
6.1576671875 -2.3182240625 -2.4489512080
3.9100034375 -2.6705150000 -2.4080487920
2.8296821875 -5.3883595625 -6.4458832325
5.0624034375 -5.2877100000 -6.4721353693
2.7632068750 -5.9769059375 -5.6847299400
2.7841828125 -4.2861056250 -6.4475410885
5.0182746875 -2.6349862500 -5.6304053664
5.1341596875 -4.1461406250 -6.3972978196
3.9089284375 -5.4639025000 -6.4751745924
6.1240465625 -3.0428143750 -6.4526751318
-6.2074477500 -1.6593968750 -6.4720595871
-5.6271103438 -2.0891415625 -4.8117068560
-5.6131125000 -1.5024603125 -4.0439770560
-5.0663943750 -2.0374340625 -5.6757645656
-4.5231296875 -1.9587978125 -4.8573238000
-4.4822125000 -1.3940868750 -4.0673165600
-3.9290712500 -1.8413675000 -5.6238749680
-3.3462868750 -1.8179459375 -4.8761560080
-3.3704071875 -1.2822868750 -4.0377341920
-2.7737150000 -1.8108643750 -5.6799105008
-6.1502631250 -1.1130146875 -5.6530778424
-5.5792930000 -0.9631865625 -4.8904291120
-5.0967093750 -0.3565103125 -6.4449456372
-5.6307492188 -0.4314512500 -4.0299241360
-4.9908084375 -0.9482440625 -5.6795633872
-4.4744859375 -0.7921943750 -4.8074197440
-4.5123393750 -0.2225115625 -4.0214017200
-3.9359781250 -0.7351253125 -5.6912253680
-3.3974703125 -0.6901365625 -4.8225735840
-2.7506293750 -0.1248612500 -6.4648910437
-3.3187131250 -0.1360143750 -4.0239532640
-2.8608840625 -0.6992875000 -5.6827936160
-6.2107815938 0.0237171875 -5.6356586976
-5.5979765000 0.1137753125 -4.8967885440
-5.0010746875 0.7757603125 -6.4680399080
-5.5859244063 0.6599425000 -4.0773155040
-5.0257325000 0.2099340625 -5.6561733704
-4.4572993750 0.3076918750 -4.8584765280
-3.9228496875 0.9811525000 -6.4296004962
-4.4859750000 0.8730343750 -4.0316208480
-3.9113606250 0.3677843750 -5.7022591768
-3.3868278125 0.4209565625 -4.8409006640
-3.3655428125 0.9828993750 -4.0334470800
-2.8185156250 0.4308062500 -5.6452030264
-6.1940035313 1.7214781250 -6.4465209890
-6.1499312188 1.1074381250 -5.7032111488
-5.6314560313 1.2644150000 -4.8123026480
-5.5861609063 1.8358581250 -4.0413478000
-5.0901115625 1.3273965625 -5.6498320712
-4.5004203125 1.3989915625 -4.8926698080
-4.4443321875 1.9580318750 -4.0810327280
-3.9127446875 1.5270643750 -5.6227701624
-3.3198553125 1.5225628125 -4.8838624480
-2.8318859375 2.1225337500 -6.4627410376
-2.7402421875 1.5514668750 -5.6608775368
-6.1541600000 -1.6716250000 -3.2173286080
-5.0368856250 -1.4985500000 -3.2434009840
-5.0402315625 -2.0436690625 -2.4003423520
-3.9470775000 -1.2831871875 -3.2396060480
-3.9255775000 -1.8358984375 -2.4302744240
-2.8007646875 -1.2724640625 -3.2618446320
-2.8014365625 -1.8048040625 -2.4138512880
-6.1866196250 -0.4909793750 -3.2108526080
-6.1972688438 -1.0868250000 -2.4706717120
-5.0557115625 -0.3768546875 -3.2257733120
-5.0838496875 -0.9328178125 -2.4264147280
-3.9152037500 -0.1961203125 -3.2719990000
-3.9355884375 -0.7337546875 -2.4012878480
-2.7754081250 -0.1287581250 -3.2100754880
-2.8398543750 -0.7182746875 -2.4515157040
-6.1462681563 0.6057893750 -3.2319384640
-6.1473848125 0.0616915625 -2.3906931120
-5.0684771875 0.8029175000 -3.2213307760
-5.0294950000 0.2167334375 -2.4666306880
-3.9181868750 0.9329521875 -3.2230404400
-3.9535678125 0.3554621875 -2.4446640960
-6.1457414063 1.6972100000 -3.2579331280
-6.1846429688 1.1639965625 -2.3981534640
-5.0085862500 1.8990278125 -3.2537625840
-5.0332306250 1.3537609375 -2.4016246000
-2.8291178125 2.0811059375 -3.2640853280
-3.9056765625 1.5114768750 -2.4671876240
-2.7877571875 1.0040096875 -3.2226389280
-2.7858893750 1.5540334375 -2.3862764800
-2.2401387500 -1.8619940625 -4.8100749040
-2.3094628125 -0.7584259375 -4.8705607440
-2.2696475000 0.9051768750 -4.0925341040
-2.2510903125 2.0980371875 -4.0451168320
-6.6559142344 2.1461837500 -4.8923978160
-3.3903753125 2.0799906250 -4.0666948640
-3.9313556250 2.1072821875 -3.1975120480
-2.8396662500 0.4375921875 -2.4277746880
-6.7172230566 -0.6390203125 -4.0665653440
-6.6993221969 0.5402950000 -4.0545329360
-6.7116261497 1.0938528125 -4.8652115680
-6.1295478750 -0.5335762500 -6.4584272445
-2.8225334375 0.9928028125 -6.4587514330
-3.8970362500 2.0674534375 -6.4663384556
-0.0332578125 -2.2155615625 -4.9062176000
-2.2167978125 -0.1895225000 -4.0476813280
1.5878959375 -1.9134328125 -3.2469498320
-1.7188578125 0.8747275000 -3.2548635040
-1.6203743750 -1.3477678125 -6.4566765226
-2.2130890625 -1.2801234375 -4.0201065200
-1.7227278125 -1.9478328125 -5.7113424144
-1.0842450000 -1.4604412500 -4.0464120320
-0.6174128125 -2.1022431250 -5.6384265400
-0.5434796875 -1.5086415625 -3.1945071840
-1.1816668750 -2.0176943750 -4.8483480640
-0.0283262500 -1.6461340625 -4.0987122080
1.0638200000 -1.7667356250 -4.0732744800
-1.7145578125 -0.8050675000 -5.6273305616
-1.1359256250 -0.9207912500 -4.9036660560
-0.6099415625 -0.4212253125 -3.2397226160
-0.5127078125 -0.9573009375 -5.6192886648
0.0430134375 -1.0563353125 -4.8386599680
0.6083559375 -1.1622631250 -5.6565515688
-0.0478509375 -0.4757815625 -4.0676921680
0.5003856250 -1.7053128125 -6.4734708889
1.1599384375 -1.1957090625 -4.8246718080
1.1002893750 -0.6315759375 -3.9956790480
1.6914453125 -1.3374075000 -5.6867271384
-2.2337021875 0.3448196875 -4.8946514640
-1.6323740625 0.3327796875 -5.6245458816
-1.1641309375 -0.3626781250 -4.0910187200
-1.0684425000 0.2285718750 -4.8251769360
-0.5243581250 0.1216362500 -5.6690981712
0.0345209375 0.0984162500 -4.8251769360
0.0092315625 0.6565562500 -3.9945651760
0.5562856250 -0.0640834375 -5.6957456160
1.1129206250 -0.0996121875 -4.8638127520
1.6573140625 -0.2019925000 -5.7003008344
1.1432490625 0.4305643750 -4.0006785200
2.2028900000 -0.3056090625 -4.8470269600
-2.2022181250 1.5145406250 -4.8089480800
-1.6663978125 1.4066643750 -5.6723258096
-1.1438134375 0.8130896875 -4.0598691600
-1.1071962500 1.3859706250 -4.8284149360
-0.5774631250 1.2287921875 -5.6794209152
-0.0084656250 1.1855503125 -4.8740707360
0.0203040625 1.7157000000 -4.0106256560
0.5391662500 1.1008537500 -5.7002930632
1.0848631250 0.9797818750 -4.8555105200
1.6386896875 0.9467525000 -5.6749991024
1.1002759375 2.0961021875 -4.8597587760
-1.6543040625 -1.3679240625 -3.2320032240
-0.5682987500 -0.9564140625 -2.3647761600
0.5131243750 -1.7071268750 -3.2209422160
1.7113731250 -1.3510734375 -2.4647656000
-1.7305081250 -0.7960240625 -2.4411152480
-0.5019175000 0.1185993750 -2.3907837760
-0.6093234375 0.6450000000 -3.2626606080
0.4812775000 -0.6450806250 -3.2541122880
1.6678087500 -0.7705465625 -3.2295164400
-1.6659409375 1.4126171875 -2.4020131600
-1.6685746875 -0.2105387500 -3.1893911440
-0.5347587500 1.8179459375 -3.1996620800
-1.6648928125 0.3390953125 -2.3739073200
-0.5733109375 1.2214015625 -2.4821730880
0.5671431250 0.5252046875 -3.2199060560
1.7265037500 0.3986906250 -3.2180668720
1.6623128125 -0.1900600000 -2.4767462000
-1.6945896875 1.9452662500 -3.2641759920
0.6088800000 1.6950868750 -3.2182870560
1.1402121875 1.5311359375 -4.0606462800
1.6404096875 0.9500715625 -2.4003294000
2.1896675000 -1.9566612500 -4.0034632000
2.2010625000 0.8093003125 -4.8813497600
1.6933937500 1.5116918750 -3.2263820560
1.6934206250 2.0710412500 -5.6203455480
1.7378987500 1.5232750000 -6.4505328710
-1.7056353125 -1.9361153125 -2.4434854640
-0.6162303125 -2.0978893750 -2.4556344400
0.6094712500 -1.1727309375 -2.3824426880
0.5794787500 -0.0676846875 -2.4824191760
0.5132990625 1.1177715625 -2.4609447600
-1.0878059375 1.9428609375 -4.0095247360
1.7284521875 2.0505356250 -2.4021297280
-0.5501850000 -1.5284215625 -6.4138736597
0.5652753125 2.2387412500 -2.3798393360
-1.6992928125 -0.2380184375 -6.4258997212
0.5554256250 0.5097515625 -6.4667351754
-0.5391125000 1.7856421875 -6.4712930878
0.6030481250 1.6749440625 -6.4508035678
1.7098278125 0.3731056250 -6.4602466119
2.2442640625 -1.4087740625 -4.8474673280
6.7138990625 -1.7338406250 -4.0141615520
6.7064143750 -1.1875659375 -4.8785262240
6.6842828125 -0.0502428125 -4.8096345360
6.6810846875 1.6320650000 -3.9801107440
3.3417046875 -2.0857284375 -3.9856282960
4.4692856250 -2.0407800000 -4.0728600160
5.0691625000 -2.0799234375 -6.4549045595
6.1678259375 -1.8977243750 -6.4314290595
5.5857806250 -1.9339250000 -4.0604649520
2.8242803125 -0.8686000000 -3.2707944640
2.7993268750 -1.4683693750 -5.6939271552
3.3278371875 -1.5510234375 -4.8527128880
3.9482465625 -0.9645168750 -6.4306764188
3.4127756250 -0.9937568750 -4.0661120240
3.9104065625 -1.5530793750 -5.6721509576
4.4676462500 -1.4815515625 -4.8793681040
4.5038603125 -0.9453953125 -4.0125166480
5.0547037500 -1.5103346875 -5.6652708552
5.5957646875 -1.3387781250 -4.8198148080
5.5804190625 -0.7731937500 -4.0165965280
6.1296500000 -1.2653825000 -5.6522812944
2.2435384375 -0.8628487500 -4.0228782480
2.8337403125 0.2261531250 -6.4478900154
2.2588034375 0.2677556250 -4.0568772480
2.7603178125 -0.3527881250 -5.6651037744
3.3204331250 -0.4190484375 -4.8402789680
3.3592137500 0.1703068750 -4.0992561920
3.8822012500 -0.3858309375 -5.6276595424
4.4984853125 -0.4250818750 -4.9112300240
4.4560496875 0.1028640625 -4.0539112400
6.1687531250 -0.1632387500 -5.6954205208
5.6014218750 -0.2217993750 -4.8445272240
5.5933459375 0.3242200000 -3.9805122560
2.7949596875 0.7624975000 -5.6291580888
3.3758762500 0.7587887500 -4.8677242560
3.3426318750 1.2914915625 -4.0289527360
3.9589965625 0.6948800000 -5.6277320736
4.5097593750 0.6964118750 -4.8012416400
5.0388206250 0.8361215625 -5.6473362208
4.5122856250 1.3019325000 -4.0851773680
5.0758275000 -0.3207800000 -5.6792046168
5.6330268750 0.8393868750 -4.8746406240
6.1415959375 1.5934725000 -6.4259139684
5.6185009375 1.4215934375 -4.0789086000
6.1783340625 0.9924265625 -5.6925633096
2.7639459375 -2.0225318750 -3.2373135440
3.9418100000 -2.1174409375 -3.2252422800
5.0134506250 -1.9572659375 -3.2309670640
6.1169650000 -1.7701218750 -3.2482061760
2.7969484375 -0.3658225000 -2.3555284320
2.7781493750 -1.4436578125 -2.4634185920
3.9156740625 -0.9607812500 -3.2030684560
3.8741790625 -1.5414962500 -2.4417887520
5.0278959375 -0.8758428125 -3.1594072640
5.0541662500 -1.4544346875 -2.3572899040
6.1730262500 -0.6747775000 -3.2281435280
6.1374571875 -1.2320843750 -2.3947470880
2.7908746875 1.3117284375 -3.2126399840
2.8180856250 0.1761118750 -3.2264079600
3.8909490625 0.1755340625 -3.2368602240
3.9471581250 -0.3803081250 -2.4291476000
5.0033187500 0.3010671875 -3.2407846800
5.0780178125 -0.2659818750 -2.4573829600
6.1931153125 0.4077743750 -3.2395283360
6.1160781250 -0.1267559375 -2.3806294080
2.2511709375 1.3684750000 -4.0563073600
3.9446318750 1.2355781250 -3.2838889360
3.9084043750 0.7178715625 -2.3906801600
5.0465740625 1.3883625000 -3.2284155200
5.0431071875 0.8249281250 -2.3880509040
6.1160915625 1.5736790625 -3.1832907520
6.1648831250 0.9770003125 -2.4609836160
2.2640306250 1.9225971875 -4.8617792880
2.8462909375 1.9033009375 -5.6501895464
3.3926731250 1.8618193750 -4.8376626640
3.9394584375 1.7763703125 -5.7056862760
4.4517228125 1.8941500000 -4.8202681280
5.0220640625 1.8852543750 -5.6314842680
5.5970815625 2.0004540625 -4.8399163120
6.1572640625 2.1539640625 -5.6059170200
3.9410306250 1.7693156250 -2.4330332000
5.0298846875 1.9234437500 -2.3541943760
6.1882778125 2.1517334375 -2.4079192720
2.8016918750 0.7443971875 -2.4274120320
2.8579546875 1.8930481250 -2.4608281920
2.7886575000 1.3311993750 -6.4439711287
2.7621184375 -2.0437765625 -6.4752665282
3.9114412500 -2.1289568750 -6.4626208430
4.9969225000 0.2466721875 -6.4480753585
6.1338559375 0.4050062500 -6.4585247730
5.0320212500 -0.9155909375 -6.4344424718
-2.8019471875 6.6370500000 -6.4410394435
-6.1175172813 2.2985246875 -5.6970537680
-6.6778528344 6.6660078125 -4.9193120720
-3.8928034375 3.1734134375 -3.2622461440
-6.1794171250 2.9075928125 -6.4448786754
-6.6993321406 2.7070381250 -4.0806312160
-5.5690509375 2.3960271875 -4.8634500960
-5.0690146875 3.0158318750 -6.4395590299
-5.6288464688 2.9311084375 -3.9918970640
-5.0144987500 2.4066965625 -5.7155142536
-4.5094906250 2.5642512500 -4.8255784480
-4.4706293750 3.1208593750 -4.0383817920
-3.9357093750 2.6251903125 -5.6232351392
-3.3489475000 2.6627750000 -4.8378180880
-2.8008050000 2.6662015625 -5.6468479304
-6.6545835188 3.8887453125 -4.0762663920
-6.1699826563 3.4507231250 -5.6158537944
-5.5492091250 3.4531015625 -4.9013606000
-5.5695306563 4.0092662500 -4.0934018880
-4.9917356250 3.5947193750 -5.6930917512
-4.4445203125 3.6900046875 -4.8495396480
-3.9329950000 4.2918568750 -6.4372673030
-4.4990093750 4.2312940625 -4.0029451200
-3.8909759375 3.6951243750 -5.7007684016
-3.3709312500 3.8293381250 -4.8163307200
-3.3243568750 4.3793350000 -4.0057686560
-2.8190396875 3.7637093750 -5.6429532640
-6.1817364375 4.5024493750 -5.6471743208
-5.6139362188 4.6036068750 -4.8473896160
-5.5331970000 5.1706693750 -4.0664746800
-5.0470443750 4.7369068750 -5.6119565376
-4.4268231250 4.7459503125 -4.8906104400
-3.9255775000 6.0058503125 -5.6094684584
-4.4380165625 5.3126903125 -4.0912259520
-3.8832493750 4.8846253125 -5.7007295456
-3.3319221875 4.9052250000 -4.8707291200
-2.7802053125 5.4636203125 -6.4352145406
-3.3621431250 5.4608790625 -4.0237071760
-2.7652762500 4.8726121875 -5.6870159680
-6.6507356906 5.5504534375 -4.8735915120
-6.1252707188 5.6588806250 -5.7443726048
-5.6219033125 5.7605084375 -4.8231305200
-5.6302144063 6.3033968750 -3.9797869440
-5.0553621875 5.7948009375 -5.6579724032
-4.5086843750 5.8966437500 -4.8423512880
-4.4231950000 6.4662325000 -4.0626797440
-3.3227712500 5.9883009375 -4.8677113040
-3.3346634375 6.5755868750 -4.0921455440
-2.7890606250 6.0445637500 -5.6895921208
-6.1895301875 2.8761759375 -3.1898185600
-6.1309400000 2.2671615625 -2.4733527760
-5.0262028125 2.9927596875 -3.2492164320
-5.0672543750 2.4458937500 -2.4093958000
-3.9025456250 2.6636350000 -2.3849165200
-3.3258484375 3.2378193750 -4.0686506160
-2.7845590625 3.1932068750 -3.2404349760
-6.1154868750 3.9989865625 -3.2125493200
-6.1307868125 3.4410884375 -2.4027514240
-5.0631021875 4.1495537500 -3.1953231600
-4.9805153125 3.5581021875 -2.4519949280
-3.9080146875 4.2809187500 -3.2574539040
-3.9099631250 3.7433246875 -2.4194724560
-2.7469609375 4.3386731250 -3.2125622720
-2.8116759375 3.7594362500 -2.4515545600
-6.0973529688 5.0635993750 -3.2905074080
-6.2046205000 4.5528400000 -2.3807848320
-4.9840628125 5.2693275000 -3.2196599680
-5.0250875000 4.7138750000 -2.3998242720
-3.9170715625 5.4463800000 -3.1912691840
-3.9002209375 4.8451728125 -2.4551034080
-2.7969215625 5.4630693750 -3.2252163760
-2.7999987500 4.9087859375 -2.4115846880
-6.2111605313 6.1919596875 -3.2442946720
-6.1315957500 5.6181381250 -2.4624083360
-4.9942215625 6.3535590625 -3.2983045120
-5.0840243750 5.8303834375 -2.4193429360
-3.8758856250 6.5339709375 -3.2299956640
-3.9167356250 6.0066296875 -2.3811474880
-2.8089884375 6.5882315625 -3.2255013200
-2.7517715625 6.0226471875 -2.4152112480
-2.7670634375 2.6311565625 -2.4296527280
-3.9213312500 5.4684578125 -6.4602740702
-5.0508740625 4.1965581250 -6.4385957897
-6.1305207500 5.0618525000 -6.4725332547
-0.0110590625 2.2660328125 -4.8642401680
-2.2340515625 4.8759850000 -4.8415353120
-2.2298053125 6.5195525000 -4.0166483360
1.1539587500 6.6107393750 -4.9046115520
0.5591746875 6.6837184375 -5.6426903384
1.7480843750 6.5500287500 -5.6545194000
0.5693200000 6.6500171875 -2.4401179440
1.7336256250 6.5671615625 -2.4354940800
-2.2165962500 2.6526565625 -4.8500965840
-1.6597193750 3.1114128125 -6.4375321714
-2.2037231250 3.2068325000 -4.0184357120
-1.6840412500 2.5153656250 -5.6834114264
-1.1210368750 2.4779287500 -4.8755343120
-1.0938662500 3.0111690625 -4.0244065840
-0.5590000000 2.3668678125 -5.6909430144
0.0257328125 2.8198862500 -4.0480698880
0.5572396875 2.2568146875 -5.6744926792
1.1711587500 3.2439065625 -4.8536195280
-2.2338096875 3.7467512500 -4.8681775760
-2.2117990625 4.2995565625 -4.0533931600
-1.6782631250 3.6923696875 -5.6714619112
-1.1096418750 3.5557371875 -4.8739412160
-1.1084325000 4.1153150000 -4.0532895440
-0.5326490625 2.9461987500 -6.4462970489
-0.5463418750 3.5261746875 -5.6805438536
-0.0016528125 3.9378593750 -4.0631978240
0.0009406250 3.3692650000 -4.8670637040
0.5969475000 3.3726915625 -5.6166736560
1.0989456250 3.7972628125 -4.0490024320
1.7485950000 3.1527465625 -5.6435827312
-2.2303696875 5.4323378125 -4.0337449760
-1.6617350000 4.8106250000 -5.6623747880
-1.1059196875 4.6696656250 -4.8626082160
-1.1123159375 5.2315681250 -4.0453629200
-0.5205418750 4.6622212500 -5.6323766608
0.0410381250 4.5079990625 -4.8425585200
0.0058856250 5.0764993750 -4.0566959200
0.6154778125 4.4513196875 -5.6366935624
1.1626259375 4.4021115625 -4.7857640000
1.7353053125 4.8315471875 -6.4447118536
1.1738059375 4.9702221875 -4.0284605600
1.6710471875 4.2430518750 -5.6894988664
-2.2170262500 5.9709665625 -4.8776584400
-1.6473300000 5.9292700000 -5.6599838488
-1.0975346875 5.7993428125 -4.8286998800
-1.1064303125 6.3738900000 -4.0508545680
-0.5312515625 5.7444237500 -5.6495898688
0.0163803125 5.6821812500 -4.7898050240
0.0517746875 6.2640921875 -4.0464249840
0.5270187500 5.5321381250 -5.6782940912
1.0937856250 5.5329578125 -4.8598105840
1.6743393750 5.9664246875 -6.4192377305
1.1658509375 6.0804687500 -4.0329678560
1.6630250000 5.3944709375 -5.6380561128
-1.6366471875 3.1175000000 -3.2078995520
-1.7012815625 2.5183756250 -2.4737542880
-0.5117537500 2.9776559375 -3.2164996800
-0.5909275000 2.4084837500 -2.4481740880
1.1189540625 2.6707165625 -4.0762663920
1.6727671875 2.6118871875 -3.2399298480
-1.6502728125 4.2511815625 -3.2134559600
-1.6696496875 3.6880831250 -2.4212209760
-0.5461134375 4.0832531250 -3.2315110480
-0.5250031250 3.5283918750 -2.3912889040
0.5576293750 3.9148275000 -3.2316146640
0.6139996875 3.3475500000 -2.4320618000
1.6887712500 3.6977178125 -3.2805991280
1.7260334375 3.1568046875 -2.4218556240
-1.6727000000 5.3425887500 -3.2330782400
-1.6376550000 4.8015009375 -2.3892942960
-0.5445412500 5.2006081250 -3.2444760000
-0.5150996875 4.6337337500 -2.4355329360
0.5820856250 5.0022034375 -3.2777626400
0.5986137500 4.4701456250 -2.4206769920
1.7163987500 4.7828228125 -3.2155800880
1.6847534375 4.2315896875 -2.4019095440
-1.6565078125 6.4992484375 -3.2312908640
-1.6581203125 5.9126075000 -2.4587817760
-0.5325012500 6.2907925000 -3.2742656000
-0.5589328125 5.7535881250 -2.4258189360
0.5857943750 6.0762090625 -3.2225741680
0.5328103125 5.5411412500 -2.3878307200
1.6890534375 5.9592490625 -3.1632928640
1.6744200000 5.3637259375 -2.4370742240
0.5765896875 2.7823821875 -3.2197894880
2.2194584375 2.4896865625 -4.0674331280
2.2316462500 4.2224387500 -4.8485164400
2.2160318750 5.8316600000 -4.0497147920
-0.5200043750 4.1107193750 -6.4382907701
0.5959262500 2.8302331250 -6.4503822392
-1.6433121875 4.2490987500 -6.4680036424
-1.6462012500 5.3781443750 -6.4691399343
0.6087859375 6.1167634375 -6.4304506654
6.1740475000 6.6275093750 -2.3628204080
3.9406543750 2.3390521875 -3.2295164400
6.7178093750 3.3021043750 -4.8254230240
6.6981771875 4.4841475000 -4.8143879200
6.7156459375 5.0379875000 -3.9890476240
2.2881643750 6.4265246875 -4.8165509040
2.8115415625 6.3657871875 -5.6989266272
3.3468109375 6.3048346875 -4.7983144880
3.8720156250 6.3070787500 -5.6583298784
4.4566006250 6.3357409375 -4.8860124800
5.0319943750 6.4054278125 -5.6851767840
5.5700318750 6.5625390625 -4.8758710640
6.1532462500 6.6220940625 -5.6316358064
2.8403515625 6.4054143750 -2.4185917200
3.9279290625 6.2358868750 -2.4574477200