ITEM: TIMESTEP
113000
# source: voids-relax.113000.cfg
ITEM: NUMBER OF ATOMS
2298
ITEM: BOX BOUNDS pp pp pp
-6.7187500000 6.7187500000
-6.7187500000 6.7187500000
-6.4760000000 6.4760000000
ITEM: ATOMS x y z
-6.1836472500 -5.8286419375 -6.4519064306
-6.1066355938 -6.3700562813 -5.6326745568
-5.5492467500 -6.3068946563 -4.8276248640
-5.5931994688 -5.7404489375 -4.0211038240
-5.0284603125 -6.3013127188 -5.7329100848
-4.4894284375 -6.3386649375 -4.8755731680
-3.8896053125 -5.2354246875 -5.6402981040
-4.4738543750 -5.7764815938 -4.0597914480
-3.9064828125 -6.3105321875 -5.6660958976
-3.3469050000 -6.5044554688 -4.8710529200
-3.3872981250 -5.9477452188 -4.0715777680
-2.7519193750 -6.5364394063 -5.6011001712
-6.7102469650 -4.7291937500 -4.0625243200
-6.1936622188 -5.2402084375 -5.7063144480
-5.6304011875 -5.2227531250 -4.9096757840
-5.1083865625 -4.5884493750 -6.4448342500
-5.6484773125 -4.6768681250 -4.0738832240
-5.0292665625 -5.1552296875 -5.6399147248
-4.4746471875 -5.2106459375 -4.8514435920
-4.5609696875 -4.6554621875 -4.0463472720
-3.3505062500 -4.7696137500 -4.0099003440
-2.8216868750 -5.4566072813 -5.7007424976
-6.2196678125 -4.1061909375 -5.6241650928
-5.0706540625 -4.0161328125 -5.6458273128
-5.6553720938 -3.5478225000 -4.0818746080
-4.4876950000 -4.0723418750 -4.8186491280
-3.9830900000 -4.1695218750 -5.7144262856
-3.9070337500 -3.5846950000 -6.4635173675
-4.4672162500 -3.5107215625 -4.0121798960
-3.4413437500 -4.2133684375 -4.8200090880
-3.3452387500 -5.3404387500 -4.7920327680
-3.8978156250 -3.6042331250 -3.2517032160
-2.8968025000 -4.3402184375 -5.6508151280
-6.7096813403 -3.0828312500 -4.8540469440
-6.1396112188 -3.0341740625 -5.7010909064
-5.6366160313 -2.9219575000 -4.8180921920
-5.6191513125 -4.0947421875 -4.8610021680
-5.5896788438 -2.3680503125 -4.0174384080
-5.0987787500 -2.9217962500 -5.7273433152
-4.5795268750 -2.9670268750 -4.8413021760
-4.4690303125 -2.3872390625 -4.0659177440
-4.0157028125 -3.0384606250 -5.6374551400
-3.4051431250 -3.1093703125 -4.9196488240
-3.4381187500 -2.5752431250 -4.0818228000
-2.7910090625 -3.2056634375 -5.6026867912
-6.1491935000 -5.7965142188 -3.2081197360
-6.1354617188 -6.3756825625 -2.4252749520
-5.0236496875 -5.7259337500 -3.2209551680
-5.0228568750 -6.2947686563 -2.4170115760
-3.9283321875 -5.7986091250 -3.2092077040
-3.8955446875 -6.3610410625 -2.4256117040
-2.8221706250 -5.9927380000 -3.2800551440
-2.7465578125 -6.5204864063 -2.4110277520
-6.1882495938 -4.6539975000 -3.2082363040
-6.1658345000 -5.2250375000 -2.4387061760
-5.1070159375 -4.5766781250 -3.2116944880
-5.0258400000 -5.1567481250 -2.4371001280
-3.9652584375 -4.7150306250 -3.2981620400
-3.8874284375 -5.2271068750 -2.4104967200
-2.8731121875 -4.3608046875 -2.4242906000
-6.1880977500 -3.5486825000 -3.2248666720
-6.1695701250 -4.0970131250 -2.3882840400
-5.0887678125 -3.4861578125 -3.3010762400
-5.0050118750 -4.0139290625 -2.4249770560
-3.9406409375 -4.1656787500 -2.4535362160
-3.3190759375 -3.6425031250 -4.0487045360
-6.1926261875 -2.4433003125 -3.2781252960
-6.1624616875 -2.9759225000 -2.4341082160
-5.0268209375 -2.3879512500 -3.2338424080
-5.0890634375 -2.9579296875 -2.4155480000
-3.9431134375 -2.4406531250 -3.1676058800
-3.9942834375 -3.0478534375 -2.4432523280
-2.8898015625 -2.6177862500 -3.2147511600
-2.7942206250 -3.7656578125 -3.1633317200
-2.2914431250 -5.4804736250 -4.8188434080
-2.7621318750 -4.8961681250 -3.2741619840
-2.2946815625 -4.3815790625 -4.9132764400
-2.2817009375 -3.8315284375 -4.0871460720
-2.3307881250 -2.7235393750 -4.0165576720
-2.8101306250 -5.4376738438 -2.4323856000
-2.8024443750 -3.1733865625 -2.4068572080
-6.2508186250 -2.4694765625 -6.4552441610
-6.6929900438 -5.8756557188 -4.0279165760
-6.1685461875 -4.6403987500 -6.4481899837
-2.8232590625 -3.7705625000 -6.4286362198
-3.9439868750 -2.4785200000 -6.4378333054
-2.8769687500 -2.6823937500 -6.4454236955
-5.0390893750 -5.6974879063 -6.4557241621
-2.1703040625 -4.9078856250 -4.0439122960
-2.2170128125 -6.0457019063 -4.0147832480
-1.6549759375 -5.0518953125 -3.1681887200
-1.7466868750 -5.6169314375 -5.6677731816
-1.0420378125 -6.1855674688 -4.0257276880
0.0163937500 -6.3877870625 -4.0627963120
1.0873221875 -6.5611321563 -4.0410240000
-1.1665093750 -5.6535970000 -4.9021636240
-0.5536518750 -5.7641755313 -5.6065529632
-0.5117000000 -4.6197721875 -5.6988605720
-1.1300131250 -5.1054437500 -4.0841282560
-0.6178025000 -5.2190712500 -6.4274095358
0.0523525000 -5.8271342500 -4.8939520560
-0.0622828125 -5.3032168750 -4.0215053360
0.6211484375 -5.9262465625 -5.6789429864
1.1600862500 -5.9699815938 -4.8152298000
1.1161053125 -5.4163337500 -4.0003158640
-1.7648275000 -3.9323365625 -6.4392041451
-1.6846190625 -4.4813390625 -5.6186332936
-1.0787625000 -4.5364731250 -4.8925273360
-1.1965018750 -4.0114431250 -4.0208577360
0.0153859375 -4.7431821875 -4.8169524160
1.1406690625 -4.3159368750 -4.0372161120
-0.0053212500 -4.1766303125 -4.0081777280
0.5302706250 -5.3518471875 -6.4649131657
0.5608140625 -4.7730671875 -5.7100096536
1.7293121875 -4.3697809375 -6.4552441610
1.1003296875 -3.7566950000 -4.8439443840
1.0827534375 -4.8722762500 -4.8408618080
-2.1871143750 -3.2608109375 -4.8643308320
-1.6476256250 -3.3451984375 -5.7060048952
-1.1138746875 -3.4539615625 -4.8195169120
-1.1171668750 -2.8839965625 -4.0025565600
-0.5799221875 -3.4822878125 -5.7031191896
-0.0449887500 -3.6380150000 -4.8378569440
0.5217243750 -3.6920068750 -5.6400701488
1.0753762500 -3.1797021875 -4.0716813840
1.6325890625 -3.2229575000 -3.2490998640
1.6466043750 -3.7932584375 -5.6702457184
-1.6325890625 -6.1813588438 -3.2724393680
-0.5147100000 -6.3429138750 -3.1718023280
0.5544581250 -6.4854561875 -3.1827856240
1.6767715625 -6.5576558750 -3.2786304240
-1.7452087500 -5.6474735313 -2.4265442480
-0.6046875000 -5.1820509375 -3.1818012720
-0.5491234375 -5.7564382188 -2.4122970480
0.5279325000 -5.3517396875 -3.2648235920
0.6244406250 -5.8895890625 -2.4361675840
1.7248912500 -5.4798138438 -3.2555370080
1.6985940625 -6.0205885625 -2.3991378160
-1.7442278125 -3.8959612500 -3.1965276960
-1.6839337500 -4.4635075000 -2.4106650960
-0.6042306250 -4.0718850000 -3.2774258880
-0.5076015625 -4.5954234375 -2.4155350480
0.5679762500 -4.2203828125 -3.2375596320
0.5596584375 -4.7973890625 -2.4462571920
1.6844175000 -4.3363215625 -3.1887305920
1.6544921875 -4.9219412500 -2.4525000560
-1.6487409375 -3.3173425000 -2.4172188080
-0.0039237500 -3.0529059375 -4.0762534400
-0.5984256250 -3.5235678125 -2.4494433840
0.5479812500 -3.1182256250 -3.2079254560
0.5265618750 -3.6729928125 -2.4070255840
1.6887981250 -6.0142406875 -5.6970628344
2.2267684375 -6.0355310625 -4.7979259280
2.2260562500 -4.3046090625 -4.0342501040
2.2215950000 -3.7477590625 -4.8808316800
-0.5931850000 -2.3843768750 -5.6114552952
-1.1876600000 -2.3516834375 -4.8614684400
-0.0111665625 -2.4824840625 -4.8669730400
0.5682718750 -2.6138893750 -5.6397903856
1.1542946875 -2.6244109375 -4.8580232080
1.7048962500 -2.6617671875 -5.6923211072
-1.7340556250 -2.7964915625 -3.2926444880
-0.5408056250 -2.9455940625 -3.2236880400
0.5309021875 -2.5452506250 -2.3971561600
1.6762609375 -3.7515753125 -2.3998372240
-0.6092562500 -2.3739090625 -2.4413613360
1.6741512500 -2.6809693750 -2.3713557760
1.6613184375 -4.9228818750 -5.6304597648
2.2346562500 -4.8606125000 -4.8485812000
2.2221862500 -3.2265184375 -4.0146666800
-1.7140875000 -2.2572984375 -2.4563079440
-2.1726959375 -6.6118898938 -4.8084947600
-1.6608615625 -6.1808415000 -6.4653774172
-0.5263603125 -6.3081631563 -6.4373267527
0.5467718750 -6.5015959688 -6.4474278880
-1.6744334375 -5.0344131250 -6.4345995796
-1.7048559375 -2.7599281250 -6.4615836469
1.6800368750 -3.2456534375 -6.4583620959
6.6777387500 -2.5794759375 -4.0280979040
6.7178362500 -6.3821164375 -4.9073314720
2.2499750000 -2.6656909375 -4.8291920560
6.7065756250 -5.3209812500 -4.8367171680
6.1422812500 -5.3083365625 -5.7165206240
6.5785565625 -4.2478490625 -5.0203117680
6.6989968750 -3.6969115625 -4.0953705920
2.2684918750 -6.6131750563 -4.0330844240
3.3724900000 -6.4102532188 -4.0260514880
4.4513196875 -6.1829014688 -4.0494946080
5.5646165625 -6.6354486531 -4.8796141920
5.6109087500 -6.0814926875 -4.0501292560
6.1423215625 -6.4779983750 -5.6352429384
2.8000928125 -4.8375403125 -5.6475305008
2.8427971875 -6.5070851875 -6.4598123314
3.3427796875 -5.8937264688 -4.8993530400
2.8203968750 -5.3791602500 -3.2508613360
3.9175284375 -5.7572337188 -5.6231004384
4.5386500000 -5.6417935000 -4.9222651280
5.0615703125 -4.3982818750 -5.6813183832
4.4739484375 -5.1211656250 -4.0509711360
5.1021112500 -5.5737446563 -5.6692756136
5.6305006250 -5.4887954688 -4.7922529520
5.5419206250 -4.8949856250 -4.0647650160
3.3706356250 -4.7482481250 -4.8191154000
3.3980481250 -5.3401968750 -4.0720958480
3.3312771875 -4.1639318750 -4.0635345760
3.8973990625 -4.6001803125 -5.6634705272
4.4987271875 -4.5600021875 -4.9057642800
4.5262068750 -4.0286028125 -4.0851126080
5.6577115625 -4.3753306250 -5.0359448320
5.6246687500 -3.8786403125 -4.0352085520
6.1054759375 -4.7361678125 -6.3737867016
2.7826912500 -2.5670865625 -5.6842196312
2.8037343750 -3.7247943750 -5.6410545008
3.3692381250 -3.5924484375 -4.8383879760
3.3167646875 -3.0379365625 -4.0111307840
4.4588984375 -3.4253262500 -4.7924213280
4.9440593750 -3.2847700000 -5.7355937392
5.5255134375 -3.3157837500 -4.8655742240
6.1478846875 -3.2581637500 -5.6054105968
5.5979012500 -2.7621453125 -4.1192540800
6.1211709375 -3.8318509375 -6.3495528620
2.8163118750 -6.4854185625 -3.2183906720
3.9453037500 -6.3646127500 -3.1900776000
5.0437656250 -6.1603210938 -3.2701468640
5.0680337500 -6.6969992563 -2.3865873280
6.1565921875 -5.9495377813 -3.2381036160
6.1709031250 -6.5109215938 -2.4484331280
2.2698625000 -5.4280646875 -4.0691686960
2.7969753125 -5.9292538750 -2.4101729200
3.9124490625 -5.1611825000 -3.2126788400
3.9120056250 -5.7590303125 -2.4769016240
5.0308656250 -5.0635456250 -3.1991569520
5.0403793750 -5.6334246250 -2.4054195360
6.1443371875 -4.9008981250 -3.2955457360
6.1581106250 -5.4052599063 -2.3805128400
2.8133690625 -4.3207878125 -3.2232088160
2.7977546875 -4.8521065625 -2.3666023920
3.9356153125 -4.0873784375 -3.3058943840
3.9272303125 -4.6092103125 -2.3939440640
5.0407153125 -3.8532703125 -3.2297495760
5.0321959375 -4.4530531250 -2.4940759760
6.1714406250 -3.7333675000 -3.2103345280
6.1264384375 -4.3423012500 -2.4679388400
2.7604387500 -3.1339206250 -3.1911655680
2.7897996875 -3.7357190625 -2.4762799280
6.0906006250 -2.6045234375 -3.2472088720
3.8893365625 -3.5763100000 -2.3956019200
4.4329103125 -2.8197384375 -4.0588977600
5.0057778125 -3.3240343750 -2.3809791120
5.0284468750 -2.8106143750 -3.3056482960
6.1353475000 -3.1642087500 -2.4608152400
3.3463271875 -2.4928175000 -4.8678278720
3.9106350000 -3.5319931250 -5.6621351760
3.9014840625 -2.4085509375 -5.6211330296
2.8156534375 -2.5495909375 -2.4272954640
3.9134165625 -3.0346309375 -3.2344641040
3.9216000000 -2.4519137500 -2.4862788720
3.9465937500 -5.2191250000 -6.4327265909
4.9613534375 -4.9679512500 -6.4640285182
2.7351762500 -5.9325285938 -5.6603814752
2.8218750000 -4.2730578125 -6.4635419634
5.0605893750 -2.3812593750 -5.7701496752
4.4961337500 -2.2671212500 -4.8653799440
4.9982393750 -2.2917790625 -2.3812899600
5.0080084375 -6.6901825469 -5.7141970352
6.1981409375 -5.9385620313 -6.4696554887
2.8328534375 -3.1651493750 -6.4459521371
-6.1077441875 -1.3171975000 -6.4713404273
-6.2184853125 -1.8922150000 -5.6869045808
-5.6811720938 -1.8385859375 -4.8769590320
-5.0629543750 -1.2465431250 -6.4345920674
-5.6105634063 -1.2766834375 -4.0478885600
-5.0780581250 -1.8378065625 -5.6352804992
-4.4958381250 -1.8419856250 -4.9005446240
-4.5793656250 -1.3012337500 -4.0712151120
-3.8925212500 -1.9118606250 -5.6311591728
-3.3238865625 -1.9828375000 -4.8366912640
-3.4366675000 -1.4242406250 -4.0246785760
-2.7941937500 -2.0787812500 -5.7135429592
-6.2199056563 -0.7662062500 -5.6477467992
-5.6396099063 -0.7274390625 -4.8881236560
-5.0738790625 -0.1643540625 -6.4657017223
-5.6266037500 -0.1623384375 -4.0982459360
-5.0402987500 -0.6831759375 -5.6109048352
-4.4548403125 -0.7138537500 -4.8469881040
-4.5028256250 -0.1663428125 -4.0343796240
-3.9126909375 -0.7878271875 -5.6912279584
-3.3855512500 -0.8679415625 -4.8200220400
-2.8002406250 -0.3512562500 -6.4598259310
-3.3561903125 -0.2812468750 -4.0259478720
-2.8394512500 -0.9369028125 -5.6786994888
-6.1835410938 0.8929621875 -6.4464798016
-6.1429235625 0.3239646875 -5.6479669832
-5.6084805938 0.4525346875 -4.8100619520
-5.6107434688 1.0264234375 -4.0348588480
-5.0693775000 0.4190350000 -5.6848762976
-4.5229953125 0.4093062500 -4.8290884400
-3.8999925000 0.9100815625 -6.4650990010
-4.4588178125 0.9859496875 -4.0509193280
-3.9799456250 0.3586334375 -5.6601237304
-3.3887090625 0.2399803125 -4.9058678960
-3.4019584375 0.7718903125 -4.0423839600
-2.7895175000 0.1914440625 -5.6200981648
-6.1514254688 2.0507103125 -6.4723460595
-6.1683392500 1.4799390625 -5.6809350040
-5.6057044063 1.5606850000 -4.8756767840
-5.0347625000 2.1169840625 -6.4374055009
-5.6007620938 2.1017862500 -4.0052635280
-5.0394253125 1.5282200000 -5.6679609856
-4.4746606250 1.5348178125 -4.8871911120
-4.5122990625 2.0587862500 -4.0271006000
-3.8912043750 1.4701296875 -5.6538782760
-3.3351203125 1.3447443750 -4.8366394560
-2.7940459375 1.3132200000 -5.6921125800
-6.1854304063 -1.3075896875 -3.2411991440
-6.2212225313 -1.8911803125 -2.4389263600
-5.0719440625 -1.2201384375 -3.1684866160
-5.1317946875 -1.8288975000 -2.4447936160
-3.9992553125 -1.3400009375 -3.2493977600
-3.9365962500 -1.8690621875 -2.3808625440
-2.8525662500 -1.5355568750 -3.2745634960
-2.7766712500 -2.0591087500 -2.4029716080
-6.1468741875 -0.2463631250 -3.2277420160
-6.2221120938 -0.7883646875 -2.3662008800
-5.0845887500 -0.1002840625 -3.2595521280
-5.0457409375 -0.6396921875 -2.4153925760
-3.9440675000 -0.2516171875 -3.2540993360
-3.9269750000 -0.7912671875 -2.4027643760
-2.8093646875 -0.3914478125 -3.1864251360
-2.8536278125 -0.9862050000 -2.4505961120
-6.1775358750 0.8853834375 -3.2390750160
-6.1870442500 0.3241259375 -2.4404287920
-5.0359450000 0.9490100000 -3.2610545600
-5.0564371875 0.4298521875 -2.3679105440
-3.9307375000 0.9083212500 -3.1794569600
-3.9617781250 0.3041712500 -2.4541061040
-6.1931166563 2.0492187500 -3.2389454960
-6.1479102188 1.4615565625 -2.4612297040
-5.0391565625 2.1133290625 -3.1834461760
-5.0738790625 1.5111543750 -2.4507256320
-2.7821671875 1.8319209375 -3.2833449520
-3.9136315625 1.4988321875 -2.4375534480
-2.8172793750 0.7692162500 -3.2318996080
-2.7803262500 1.3101831250 -2.3912111920
-2.2691637500 -2.1592315625 -4.8138439360
-2.2833940625 -1.0642634375 -4.8853389760
-2.2981081250 -0.5194668750 -4.0620062400
-2.2705746875 0.6209065625 -4.0416716000
-2.2669196875 1.2118743750 -4.7918514400
-3.3724496875 1.9065528125 -4.0407520080
-3.9144512500 2.0544190625 -3.2392174880
-2.8133018750 0.2007965625 -2.4478632400
-6.7046523156 1.3666206250 -4.8496044080
-4.0073581250 -1.3690528125 -6.4565858586
-2.8148875000 -1.4924896875 -6.4751665103
-3.9210625000 -0.2090875000 -6.4531851815
-2.8267796875 0.7216340625 -6.4749092305
-2.2390637500 -1.5895890625 -4.0046288800
-2.2204662500 0.0689075000 -4.8389708160
1.6528931250 -2.1456193750 -3.2098682560
-1.6796606250 0.5472959375 -3.2949758480
-1.7272562500 -2.1914950000 -5.6856883880
-1.1528568750 -1.7924146875 -4.0653349040
-0.5878234375 -1.8042934375 -3.2371840240
-0.0355690625 -1.9326215625 -4.0614363520
1.6182781250 -2.0771015625 -6.4557975999
1.1006656250 -2.0505356250 -4.0416975040
-1.6873468750 -1.0949278125 -5.6222378352
-1.1192362500 -1.2066875000 -4.8328186160
-0.6005890625 -0.7375978125 -3.2755996560
-0.5799625000 -1.2939371875 -5.6732220880
-0.0326128125 -1.3370984375 -4.8036766160
0.4935325000 -1.4556171875 -5.6698480920
0.0032653125 -0.7587753125 -4.0234481360
1.0691009375 -1.5197946875 -4.8924366720
1.1221656250 -0.9781425000 -4.0421896800
1.6752934375 -1.5387684375 -5.6188457064
-1.6741109375 0.0009540625 -5.6782798440
-1.1775146875 -0.6434815625 -4.0447412240
-0.5563796875 0.4040925000 -6.4531928232
-1.1429534375 -0.0605359375 -4.8019410480
-0.6087859375 -0.1867543750 -5.6719217072
-0.0497187500 -0.2272818750 -4.8624139360
0.5062578125 0.1944406250 -6.4673042992
-0.0041925000 0.3450750000 -4.0441324800
0.5228934375 -0.3425487500 -5.6456019480
1.0855887500 -0.4029637500 -4.8318601680
1.6220003125 -0.3960434375 -5.6646569304
1.0902381250 0.1529321875 -4.0316726560
2.2005115625 -0.4006793750 -4.8903773040
-1.6447634375 1.6721221875 -6.4622864224
-2.1902721875 1.8100984375 -4.0538982880
-1.7381943750 1.1098971875 -5.6514368240
-1.0796628125 0.5280534375 -4.0477201840
-0.5847059375 1.4864696875 -6.4366044197
-1.1553025000 1.0743684375 -4.8808575840
-0.5660815625 0.9387840625 -5.6107494112
0.0367918750 0.8853296875 -4.8956487680
-0.0263912500 1.4073631250 -4.0164799600
0.6081006250 0.7672275000 -5.6871726872
1.1289246875 0.7148346875 -4.8162530080
1.6759653125 0.7007521875 -5.6953117240
1.1108512500 1.8271640625 -4.8882920320
-1.6876021875 -1.6582143750 -3.1953231600
-0.5691721875 -1.2668068750 -2.3813417680
0.5266425000 -2.0241175000 -3.2542547600
1.6505146875 -1.5593681250 -2.4553494960
-1.7092903125 -1.0833178125 -2.4334606160
-0.5920696875 -0.2161421875 -2.4134109200
-0.5651678125 0.3571418750 -3.1950511680
0.5365325000 -0.9082271875 -3.2250480000
1.6577037500 -0.9775646875 -3.1984964000
-1.6932056250 1.0644650000 -2.4062096080
-1.7211421875 -0.5140112500 -3.2292444480
-0.5731900000 1.5479328125 -3.1993900880
-1.6870512500 0.0294550000 -2.3850978480
-0.5537459375 0.9515228125 -2.4684310160
0.5448906250 0.2376556250 -3.2023301920
1.6763550000 0.1324668750 -3.2801199040
1.6734256250 -0.3924556250 -2.4183844880
-1.6771612500 1.6353168750 -3.1963593200
0.5764553125 1.3724525000 -3.2669995280
1.1390700000 1.3103712500 -4.0322295920
1.6700796875 0.6550109375 -2.3747621520
2.1998262500 -0.9637778125 -4.0510747520
2.2023793750 0.7025528125 -4.8026922640
1.7053665625 1.1926050000 -3.2222633200
-1.6521675000 2.2143925000 -5.6244137712
-1.0495359375 2.1812959375 -4.8694727760
-0.5212406250 2.0947450000 -5.7093879576
0.0151843750 1.9737403125 -4.8119140880
0.5443934375 1.9318153125 -5.6776076352
1.7170034375 1.8018209375 -5.6003981728
-1.6600687500 2.2322509375 -2.4629911760
-0.5337509375 2.1306500000 -2.4338362240
0.5421225000 1.9116590625 -2.4186823840
0.5220065625 -1.4698743750 -2.4255598960
0.5573606250 -0.3469696875 -2.4399495680
0.5692393750 0.8199831250 -2.4465939440
-1.1199753125 1.6221615625 -4.0471891520
1.6899268750 1.7716268750 -2.4511530480
0.5886565625 -0.9142068750 -6.4688439034
2.1879340625 -2.0770075000 -4.0634439120
0.5379165625 -2.0419490625 -6.4313376184
1.6684806250 -0.9966459375 -6.4425486106
0.5500237500 1.3453893750 -6.4527527142
6.7109831250 -1.4221578125 -4.0851644160
6.7141812500 -0.2643290625 -4.0561389840
6.6612106250 -1.9956434375 -4.8406027680
6.6438493750 -0.8280590625 -4.8301116480
6.6895906250 0.3015643750 -4.9024226640
6.7013484375 0.7942637500 -4.0015592560
6.7117893750 1.9290606250 -4.0673683680
3.3504121875 -1.9689968750 -4.0147573440
3.9384909375 -1.8444581250 -6.4481269074
4.4377746875 -1.7436634375 -3.9777923360
5.0112468750 -1.8399028125 -6.4611120646
5.5495665625 -2.1219962500 -4.8184030400
5.5498218750 -1.5638562500 -4.0368146000
6.1282121875 -2.1726825000 -5.6670880208
2.2581450000 -1.5185853125 -4.8609244560
2.7327171875 -0.8904762500 -6.4500961295
2.7752871875 -0.9407728125 -3.2150231520
2.8081418750 -1.4712853125 -5.6814919400
3.3521859375 -1.3896256250 -4.7959442720
3.3037840625 -0.8098781250 -4.0519036800
3.8679306250 -1.2729612500 -5.6941758336
4.4503790625 -1.2327696875 -4.9046763120
4.4650125000 -0.7063690625 -4.0425652880
5.0097553125 -1.1924975000 -5.6967545768
5.5606390625 -1.0297559375 -4.9151544800
6.1430203125 -0.4180943750 -6.4271761408
5.5800831250 -0.5056800000 -3.9990336160
6.1552081250 -1.0713450000 -5.6923949336
2.8238234375 0.2150403125 -6.4384973545
2.2752240625 0.1093275000 -4.0337190720
2.8013290625 -0.3420918750 -5.6277618632
3.3780262500 -0.2621253125 -4.8793810560
3.3693321875 0.3046953125 -4.0625243200
3.9694778125 -0.1703203125 -5.6761984576
4.4898315625 -0.1237996875 -4.8147894320
4.4454609375 0.4814253125 -4.0904099760
6.1203781250 0.1441171875 -5.6737285112
5.5666859375 0.0198337500 -4.8777879600
5.5830393750 0.5845715625 -4.0596748800
6.1896618750 0.7278018750 -6.4632080479
2.7351090625 0.7992893750 -5.6616792656
3.3184846875 0.8495993750 -4.8918926880
3.4062046875 1.3859303125 -4.0419694960
3.9166281250 0.9436484375 -5.6063301888
4.5196896875 1.0420109375 -4.9079531680
5.1128209375 1.1062690625 -5.6611547096
4.5319715625 1.5691371875 -4.0278906720
5.0090834375 -0.0004300000 -5.7191123192
5.6394634375 1.1669796875 -4.8214079040
5.5979953125 1.7763837500 -4.0938940640
6.1570759375 1.3204762500 -5.6974772984
2.7356465625 -2.0002121875 -3.2490092000
3.8687368750 -1.8312356250 -3.1676835920
5.0338353125 -1.7343915625 -3.1926420960
6.1525206250 -1.5257206250 -3.2734237200
6.1403462500 -2.0671712500 -2.4069867280
2.7527525000 -0.3485956250 -2.4601676400
2.8102381250 -1.4605353125 -2.3494150880
3.8715184375 -0.6938990625 -3.2646552160
3.9325650000 -1.2404425000 -2.4328907280
4.9869518750 -0.5097650000 -3.2198153920
5.0320884375 -1.1076396875 -2.4924569760
6.1672078125 -0.4072234375 -3.2327544400
6.1056640625 -0.9804671875 -2.4421773120
2.8040971875 1.3474050000 -3.2695640240
2.8162581250 0.2418212500 -3.2151785760
3.9249056250 0.3650431250 -3.2041952800
3.8926556250 -0.1877218750 -2.3613697840
4.9945575000 0.5733512500 -3.2558608080
5.0555906250 0.0380550000 -2.4009770000
6.0908425000 0.7752765625 -3.2288040800
6.1573715625 0.1810971875 -2.4873020800
2.2396953125 1.2900000000 -4.0628481200
3.9436643750 1.5459843750 -3.2352023680
3.8976543750 0.9600153125 -2.4710343680
5.0893859375 1.6659812500 -3.2041434720
5.0087743750 1.1247053125 -2.3818339440
6.1548721875 1.8536896875 -3.2470923040
6.1883987500 1.3192131250 -2.3842430160
2.3117337500 1.8672750000 -4.8542153200
2.8556165625 1.8843003125 -5.6905155984
3.3917459375 1.9824209375 -4.7833031200
3.8808440625 2.1039631250 -5.7003332144
4.4495862500 2.1184487500 -4.8724776400
3.9435703125 2.1003081250 -2.4189414240
2.7988834375 0.8007003125 -2.4198610160
2.8373818750 1.8806184375 -2.3881027120
5.0635456250 -0.6426215625 -6.4623040371
3.8488090625 0.4083521875 -6.4605297426
3.9793946875 1.4857306250 -6.4349464342
4.9952428125 1.6866884375 -6.4331027170
-5.0442762500 6.5959715625 -3.2451495040
-3.8885303125 3.1509593750 -3.2818554720
-6.6668870281 2.5211571875 -4.8329999440
-6.7111097331 3.1088193750 -4.0835195120
-6.1189107500 2.6238734375 -5.6736197144
-5.5456199688 2.6393534375 -4.8689935520
-5.6172727500 3.1955315625 -4.0557245200
-5.0015315625 2.7092015625 -5.6828700328
-4.4360546875 2.6191300000 -4.8558472720
-4.4671490625 3.1645715625 -4.0186818000
-3.8853859375 2.5904409375 -5.6892191032
-3.3618743750 2.4820003125 -4.7959313200
-2.7713231250 2.9544896875 -6.4644263777
-2.8249118750 2.3912434375 -5.6315205336
-6.7022332969 3.6703321875 -4.9151803840
-6.6569744531 4.1705431250 -3.9950573520
-6.1094252188 3.7166109375 -5.6634731176
-5.5675513125 3.7710865625 -4.8398256480
-5.5791196563 4.3468028125 -4.0511524640
-5.0156543750 3.8220146875 -5.6884575256
-4.4862975000 3.7268368750 -4.8057359840
-4.4507015625 4.3561553125 -4.1001628320
-3.9365290625 3.6898568750 -5.6290233880
-3.3430484375 3.6414146875 -4.8650302400
-3.3559484375 4.1983050000 -4.0399489840
-2.7697912500 3.4952953125 -5.6241702736
-6.6779827750 5.2856406250 -4.0319316960
-6.1823760625 4.8982375000 -5.6911463608
-5.6279878125 4.8837518750 -4.8954026800
-5.5274161875 5.4161993750 -4.0393402400
-5.0082503125 4.8834159375 -5.6029937536
-4.4223484375 4.9159481250 -4.8509902720
-3.8901293750 5.9250640625 -5.7084346904
-4.4705218750 5.4942578125 -4.0644930240
-3.8689384375 4.7619409375 -5.6503100000
-3.2759953125 4.7519703125 -4.8636184720
-2.7542978125 5.2605393750 -6.4476588222
-3.3448625000 5.2850628125 -3.9942802320
-2.7492856250 4.6570478125 -5.7314439184
-6.6868589156 5.8739746875 -4.7987419040
-6.1581993125 6.0275384375 -5.6807666280
-5.6008937813 5.9917543750 -4.8349816000
-5.6040704063 6.5595156250 -4.0538853360
-5.0457006250 5.9890937500 -5.6444051832
-4.4489681250 6.0469018750 -4.8894965680
-5.0251278125 6.5266878125 -6.4585280110
-4.4536846875 6.5592737500 -3.9964820720
-3.3550481250 5.8091790625 -4.8714414800
-3.3337093750 6.3725731250 -4.0615011120
-2.7589606250 5.8215818750 -5.6594489312
-6.1514899688 3.1302118750 -3.2099071120
-6.1161856250 2.5698143750 -2.3719127120
-5.0586006250 3.2833053125 -3.2580756000
-4.9912921875 2.7181106250 -2.4731066880
-3.9037684375 2.6199093750 -2.4156775200
-3.3030046875 3.0872253125 -4.0704509440
-2.7898937500 2.9110731250 -3.2015142160
-6.0967926250 4.2786075000 -3.1888212560
-6.1607752813 3.6985643750 -2.4204050000
-4.9946918750 4.3404737500 -3.2546692240
-4.9884837500 3.7966446875 -2.3798522880
-3.9270018750 4.2417753125 -3.2133393920
-3.8939456250 3.6851940625 -2.4103283440
-2.7996359375 4.0899718750 -3.2131969200
-2.7698584375 3.5143362500 -2.4611519920
-6.1254991563 5.4629618750 -3.2596039360
-6.1575731250 4.8735662500 -2.4703738160
-5.0077800000 5.4440284375 -3.1859718160
-5.0383771875 4.8746143750 -2.3970395920
-3.9244218750 5.3530162500 -3.2268224240
-3.8627571875 4.8178409375 -2.4129187440
-2.7527256250 5.2371581250 -3.2464965120
-2.7453350000 4.6702165625 -2.4569684960
-6.1641790000 6.5151046875 -3.2459913840
-6.1276639375 5.9617887500 -2.3735317120
-5.0048775000 6.0429109375 -2.4479409520
-3.8786537500 6.5046368750 -3.2228850160
-3.8780356250 5.9510656250 -2.4510623840
-2.7743196875 6.3554134375 -3.2114484000
-2.7804068750 5.7811484375 -2.4149133520
-2.8095931250 2.3589800000 -2.3933223680
-3.9227018750 5.3350368750 -6.4389458822
-2.2519503125 6.2272600000 -4.0935055040
-6.1137803125 4.3143646875 -6.4346787163
-2.7985878125 4.0437200000 -6.4355623018
-3.8716931250 6.5304234375 -6.4133716402
-4.9942618750 5.4281721875 -6.4707635323
-1.6627428125 6.7143156250 -2.4173742320
-2.2321434375 4.5172978125 -4.8331294640
-2.1842790625 5.0902190625 -4.0408426720
-1.6548550000 6.6814475000 -5.6874045280
-1.1098031250 6.6863790625 -4.8174704960
-0.5809837500 6.5330034375 -5.6952378976
-0.0198471875 6.4920325000 -4.8744204400
1.1534750000 6.3440050000 -4.8733583760
0.5567290625 6.3831618750 -5.6263047632
1.7174737500 6.3275306250 -5.6450657352
-0.5967459375 6.5063703125 -2.4286424720
0.5734721875 6.3792112500 -2.4147320240
1.7373612500 6.3544728125 -2.4148356400
-2.2278837500 2.3498290625 -4.8752752720
-2.2355700000 2.9124034375 -4.0455053920
-1.1407362500 2.7023618750 -3.9867421680
0.0568003125 2.5401309375 -4.0317374160
1.6901284375 2.3663571875 -6.4351708923
1.1499275000 2.9845896875 -4.8402789680
-2.1658562500 3.4593500000 -4.8847690880
-2.2284078125 3.9751215625 -3.9841517680
-1.6139109375 3.3727184375 -5.7191693080
-1.1078815625 3.2466343750 -4.8203199360
-1.0498315625 3.8244334375 -4.0396251840
-0.5327028125 2.6679215625 -6.4718065310
-0.5435334375 3.2340031250 -5.6724915952
0.0279903125 3.6789053125 -4.0769787520
-0.0072965625 3.0981903125 -4.8404862000
0.5739290625 3.0202125000 -5.6174132152
1.1319212500 3.5299506250 -4.0383299840
1.6929503125 2.9483890625 -5.6449491672
-1.6698915625 4.5389590625 -5.6670232608
-1.1292606250 4.3772656250 -4.8510679840
-1.0935437500 4.9589750000 -4.0922880160
-0.5313590625 4.3240934375 -5.5809934864
0.0713800000 4.2522162500 -4.8613518720
0.5670625000 4.6770428125 -6.4516051670
0.0143512500 4.7976175000 -4.0312452400
0.6303262500 4.1084618750 -5.6701174936
1.1695193750 4.1206228125 -4.8126005440
1.1824731250 4.6895531250 -4.0135528080
1.6931518750 4.0507343750 -5.7041553496
-2.2224415625 5.6442740625 -4.8509514160
-1.6285712500 5.6097262500 -5.6047202552
-1.0556903125 5.5577634375 -4.8286351200
-1.1024796875 6.1117512500 -4.0205080320
-0.5122509375 5.4082309375 -5.6743890632
0.0317259375 5.3763303125 -4.8095309200
0.0815387500 5.9493993750 -4.0267768000
0.5660546875 5.2580131250 -5.6844320440
1.1271643750 5.2168675000 -4.8775548240
1.7103250000 5.7387665625 -6.4252705130
1.1749346875 5.7693637500 -4.0554395760
1.7209271875 5.1625396875 -5.6172590864
-1.6900343750 2.8203296875 -3.1878369040
-0.5213884375 2.6717781250 -3.2730740160
1.1688206250 2.3943878125 -4.0779112960
1.6850356250 2.3669215625 -3.1719188960
-1.6115459375 3.9658362500 -3.2650308240
-1.6528259375 3.4236734375 -2.4476042000
-0.4956959375 3.7668134375 -3.2004910080
-0.5704756250 3.2033925000 -2.4062225600
0.5815615625 3.5803412500 -3.2205018480
0.5921637500 3.0308012500 -2.3907319680
1.7080943750 3.5013421875 -3.2726206960
1.7367834375 2.9709640625 -2.4295750160
-1.6309631250 5.0749003125 -3.2173933680
-1.6549087500 4.5094368750 -2.4134627280
-0.5524962500 4.8889387500 -3.2394894800
-0.5078971875 4.3423146875 -2.4134756800
0.5963965625 4.6838690625 -3.2662224080
0.6180578125 4.1433590625 -2.4138124320
1.7506509375 4.5840150000 -3.2215121040
1.6963231250 4.0373103125 -2.3995781840
-1.6956781250 6.1678393750 -3.2674787520
-1.6271065625 5.6352171875 -2.4089036240
-0.5230546875 5.9768387500 -3.2829434400
-0.5232025000 5.4451840625 -2.4098102640
0.6044053125 5.8096359375 -3.1993900880
0.5527918750 5.2284371875 -2.4290828400
1.6962693750 5.7625778125 -3.1780322400
1.6882875000 5.1645687500 -2.4576420000
2.2130487500 2.4039015625 -4.0245879120
0.6152090625 2.4842981250 -3.2234160480
2.2373840625 4.0397156250 -4.8223274960
2.2347234375 5.7351518750 -4.0278000080
-1.7162509375 2.7670500000 -6.4326861806
-1.6364187500 3.9655271875 -6.4495904834
1.7201612500 4.6500200000 -6.4741038531
0.6506706250 5.8314987500 -6.4503888447
4.5034840625 6.6630650000 -4.7976927920
5.0204515625 2.2546915625 -5.6325605792
6.7184409375 4.7336012500 -4.8464052640
6.7060381250 6.4852062500 -4.0916792720
2.2911475000 6.2913568750 -4.8653281360
2.8585862500 6.3805684375 -5.6548237720
3.4194540625 6.4606290625 -4.8533475360
3.9770700000 6.5533881250 -5.6950954256
2.8210284375 6.3601165625 -2.4673819040
3.9376981250 6.5042740625 -2.4071810080