ITEM: TIMESTEP
91000
# source: voids-relax.91000.cfg
ITEM: NUMBER OF ATOMS
2298
ITEM: BOX BOUNDS pp pp pp
-6.7187500000 6.7187500000
-6.7187500000 6.7187500000
-6.4760000000 6.4760000000
ITEM: ATOMS x y z
-6.7040665750 -6.5316919375 -4.0689744160
-5.5892797500 -6.4096418125 -4.0701789520
-3.9505443750 -5.6714608125 -5.7155077776
-4.4339718750 -6.2580063438 -4.0183839040
-3.3589315625 -6.6276796281 -4.8781635680
-3.3144937500 -6.0735470938 -4.0794525840
-2.7522687500 -6.5788024688 -5.6117583720
-6.1665937188 -5.3677303125 -6.4146054477
-6.1367745625 -5.9967867188 -5.6614059784
-5.5796329688 -5.7630037813 -4.8648230080
-5.6134995000 -5.2949125000 -4.1156016160
-5.0207606250 -5.7796326875 -5.7137437152
-4.4879100000 -5.6920927500 -4.8313938960
-4.4858809375 -5.1430284375 -4.0043439360
-3.3550346875 -4.9623075000 -4.0228393920
-2.8250596875 -5.4948114375 -5.6384744624
-2.7481568750 -4.9355937500 -6.4522154653
-6.6628156000 -4.8934806250 -4.9037049120
-6.0431219063 -4.8177468750 -5.5148048808
-5.1059812500 -4.6738312500 -5.5627816792
-5.0236362500 -4.1246003125 -6.4411758281
-5.5953588750 -4.3959706250 -4.2640833440
-4.5371987500 -4.6170309375 -4.8900794080
-3.9252012500 -4.5351965625 -5.6812484424
-3.9818134375 -3.9393643750 -6.4295896165
-4.4803178125 -4.0726240625 -4.0033984400
-3.4018375000 -4.4074865625 -4.8461462240
-3.4275971875 -5.4989273438 -4.8652892800
-3.9384640625 -3.9395390625 -3.1714137680
-2.8351378125 -4.3608853125 -5.7006362912
-6.1296607500 -3.7354100000 -5.6863230360
-5.6070669688 -3.7161003125 -4.7836657760
-5.6128773438 -3.0822131250 -4.1011860400
-5.0915628125 -3.5197246875 -5.6805904808
-4.4856793750 -3.5214850000 -4.8911026160
-4.4865931250 -2.9914965625 -4.0871201680
-3.9405603125 -3.3696143750 -5.6495613744
-3.3350800000 -3.3020775000 -4.9013346960
-2.8418700000 -2.6485581250 -6.4359614824
-3.3653950000 -2.7989775000 -4.0166094800
-2.7687431250 -3.2343390625 -5.6715279664
-6.1433549063 -6.5242354688 -3.2428699520
-5.0317525000 -6.3524209063 -3.2693956480
-3.8609296875 -6.2412282813 -3.2440744880
-2.7712962500 -6.0520027500 -3.2362514800
-2.7869375000 -6.5867985875 -2.3644782640
-6.1608747188 -5.4250425938 -3.2214732480
-6.1564605000 -5.9670441563 -2.4218426720
-5.0730190625 -5.2467659375 -3.2120960000
-5.0080756250 -5.8058398438 -2.4440294480
-3.9185631250 -5.1118668750 -3.2320032240
-3.9085790625 -5.6809530625 -2.4511660000
-2.7703959375 -4.3913750000 -2.4206381360
-6.1122390313 -4.2881212500 -3.2975273920
-6.1581845313 -4.8299884375 -2.4415038080
-5.0995043750 -4.0942181250 -3.2846272000
-5.0378128125 -4.6397671875 -2.4661385120
-3.9210087500 -4.5368493750 -2.4619550160
-3.4121440625 -3.8544259375 -4.0290822560
-6.1407560938 -3.2708084375 -3.2750686240
-6.1833113125 -3.7793103125 -2.3664858240
-5.0639353125 -3.0270521875 -3.2695251680
-5.0278018750 -3.5538156250 -2.3962495200
-3.9694375000 -2.7653568750 -3.2592024240
-3.9449275000 -3.3282940625 -2.4678999840
-2.8225065625 -2.6632587500 -3.1861401920
-2.8213240625 -3.8295396875 -3.2295293920
-2.7764965625 -4.9315221875 -3.2553297760
-2.2768768750 -3.6720925000 -4.0333564160
-6.1842102813 -2.6807946875 -5.6677330304
-5.6201416563 -2.5152446875 -4.8836163600
-5.0368318750 -2.4571678125 -5.6561966840
-4.4825887500 -2.3758843750 -4.8044148800
-3.3834281250 -2.2407165625 -4.8631003920
-6.1951416875 -2.7100078125 -2.4730289760
-5.0666631250 -2.4982731250 -2.3943326240
-2.8163521875 -5.4971750938 -2.4291605520
-2.8089212500 -3.2512568750 -2.4533030800
-2.2411331250 -5.9416540000 -4.1076749920
-2.2610878125 -5.3646396875 -4.8752364160
-2.3053912500 -4.2325034375 -4.8334403120
-2.2784087500 -2.5556378125 -4.0323332080
-6.7185711106 -3.7717450000 -4.8384397840
-2.7636368750 -6.0307096875 -6.4727693438
-3.9288965625 -5.0811890625 -6.4714585107
-6.1796254063 -4.3382162500 -6.4756275031
-3.9052196875 -2.8067846875 -6.4490497374
-3.8259115625 -6.2461773125 -6.4638494698
-2.1673075000 -6.5322925938 -4.8477652240
-2.2089100000 -3.1057959375 -4.8370927760
-1.6582546875 -4.7431687500 -3.2379740960
-1.6475584375 -5.2711012500 -5.6017594280
-2.2224146875 -4.8053843750 -4.0714352960
-1.6312453125 -6.3578442813 -5.6914196480
-1.0635243750 -6.3674682188 -4.8734101840
-1.1390296875 -5.8117872813 -4.0567477280
-0.5014740625 -6.3055630000 -5.7043884856
0.0224675000 -6.2678640938 -4.8334144080
0.0093659375 -5.7256838125 -4.0034372960
1.1405481250 -6.3989039063 -4.8672061760
0.5686346875 -6.3868545000 -5.6657539648
1.1442837500 -5.8619010938 -4.0096024480
1.6905584375 -6.5145013438 -5.6475732424
-1.0617103125 -5.2427078125 -4.8223922560
-0.5543371875 -5.1892534375 -5.6814090472
-0.6097803125 -4.0865318750 -5.6500924064
-1.1314240625 -4.6368915625 -4.1057580960
0.0441690625 -5.1912959375 -4.8730604800
0.5717521875 -4.6378993750 -6.4457016454
-0.0200621875 -4.6479640625 -4.0007821360
0.5417193750 -5.2474378125 -5.7600846760
1.0985425000 -5.3235612500 -4.8990810480
1.1273121875 -4.8059890625 -4.0294578640
1.6734525000 -5.3674212500 -5.6851884408
-1.7377106250 -4.2035725000 -5.6433081488
-1.1693043750 -4.0533815625 -4.8511716000
-0.5497415625 -3.5178703125 -6.4500659514
-1.0886256250 -3.5158009375 -4.0056391360
-0.0340237500 -4.1265218750 -4.8823729680
1.1045087500 -3.6462521875 -4.1164564480
0.0258268750 -3.5602521875 -4.0693241200
0.5386690625 -4.0722075000 -5.6854837464
1.0766125000 -4.2435356250 -4.8425585200
1.1387609375 -3.0422096875 -4.8570518080
1.6513343750 -4.2780296875 -5.6111573992
-1.6952212500 -3.0801303125 -5.7245107128
-1.1537437500 -2.9752775000 -4.8463534560
-0.5441381250 -2.3600550000 -6.4673449296
-1.1513115625 -2.4021278125 -4.0311157200
-0.6011937500 -2.9346693750 -5.6926539736
-0.0611540625 -2.9894943750 -4.8662477280
0.5400396875 -2.9890106250 -5.6065698008
1.0710090625 -2.4918096875 -4.0616047280
1.5915240625 -2.6456018750 -6.4540862522
1.6252656250 -2.6399312500 -3.2527393760
1.6985537500 -3.2165343750 -5.6292319152
-1.7054337500 -5.8026968125 -3.2401629840
-1.6522346875 -6.3632286875 -2.4332922400
-0.5944212500 -5.7224373125 -3.2429088080
-0.5596584375 -6.2891800000 -2.4479668560
0.5700321875 -5.8382376563 -3.2145439280
0.5576831250 -6.3927253438 -2.4097325520
1.7256840625 -5.9205826563 -3.2153858080
1.6865271875 -6.5065087188 -2.4830797280
-1.6867287500 -5.2766240625 -2.3647373040
-0.5932925000 -4.6236153125 -3.2230404400
-0.5160403125 -5.1726312500 -2.4071810080
0.5735259375 -4.6281571875 -3.2328969120
0.5627490625 -5.2283700000 -2.5003965520
1.7128378125 -4.7911137500 -3.2475715280
1.6495337500 -5.3513634375 -2.4315178160
-1.6857881250 -3.6412131250 -3.2826455440
-1.6877096875 -4.1769393750 -2.4227234080
-0.5087975000 -3.4872731250 -3.2347620000
-0.5977403125 -4.0428600000 -2.4398718560
0.5773690625 -3.5172118750 -3.2089227600
0.5361159375 -4.0910468750 -2.4131000720
1.6273081250 -3.7393606250 -3.2421187360
1.6996556250 -4.2832300000 -2.3625225120
-1.6768521875 -3.1030815625 -2.4349630480
-0.0157353125 -2.4250656250 -4.0770435120
-0.6051981250 -2.9268218750 -2.4393149200
0.5081256250 -2.4447381250 -3.2315758080
0.5554121875 -2.9697681250 -2.3608387520
2.2359865625 -4.9330809375 -4.1215724880
2.1958756250 -3.7772812500 -4.0716554800
2.2073915625 -2.6762662500 -4.0051469600
-1.7049096875 -2.5231728125 -3.2179373520
-0.5819781250 -2.3538603125 -3.2519493040
1.7151221875 -3.1951150000 -2.4235264320
1.6938237500 -4.7850131250 -6.4687285400
2.2356371875 -6.1027817188 -4.0720699440
2.2244034375 -5.5129023438 -4.8452395840
0.5553718750 -2.4171778125 -6.4658710827
6.7120178125 -5.9920567188 -4.8649913840
6.7057425000 -5.4408101563 -4.0327606240
6.7121790625 -4.3602671875 -4.0403375440
2.2999759375 -3.2131615625 -4.8672061760
6.7016575000 -3.2155131250 -4.0632755360
2.2950981250 -6.6506912125 -4.9106730880
2.8557912500 -6.5797000938 -5.8102438864
3.3793162500 -6.2146018750 -4.1336955600
4.9715256250 -6.6070790000 -6.4266691995
4.4675656250 -6.3375106563 -4.0514892160
5.6030343750 -6.5626049063 -4.0009375600
2.7868165625 -5.6629427813 -5.7022902616
3.3528175000 -5.6116773750 -4.8309794320
4.0025206250 -4.6568462500 -5.7096547688
3.3485578125 -5.0281915625 -4.0642469360
3.9109978125 -5.7841705313 -5.6280338552
4.5140728125 -5.7948452813 -4.9066709200
4.4663831250 -5.2763687500 -4.0186170400
5.0565178125 -5.9469752500 -5.7346067968
5.5818434375 -6.0568523438 -4.8882402240
5.6204896875 -5.4760338750 -4.0770176080
6.1677453125 -6.0321690000 -5.6801358656
2.2648368750 -4.3416831250 -4.8612094000
2.8044331250 -4.5515500000 -5.6295583056
3.4207575000 -4.5139250000 -4.9238582240
3.3329703125 -3.9732000000 -4.0166742400
3.8917687500 -3.5135300000 -5.7118190480
4.5130918750 -4.7214940625 -4.8332460320
4.5023015625 -4.1600618750 -4.0395733760
5.0703046875 -4.8263200000 -5.7243786024
5.5940984375 -4.9144028125 -4.8491251840
6.2027096875 -4.3206400000 -6.4402649139
5.6482515625 -4.3348434375 -4.0560612720
6.1530043750 -4.9019596875 -5.6411218512
2.8245087500 -3.3908590625 -5.7299052208
3.3468109375 -3.4288468750 -4.8442940880
3.3798268750 -2.8585996875 -4.0327217680
4.4330850000 -3.6069340625 -4.8584117680
4.4846715625 -3.0403418750 -4.0533931600
5.0103196875 -3.6858390625 -5.6535777896
5.5717384375 -3.7859215625 -4.8955969600
5.5656109375 -3.2590640625 -4.0313747600
6.1981678125 -3.7722825000 -5.6303328352
2.8272500000 -6.0851100625 -3.2911550080
2.7957121875 -6.6204712156 -2.4239797520
3.8807768750 -6.3354936875 -3.2460043360
5.0113812500 -6.5108127500 -3.2433750800
6.1862621875 -6.5802120625 -3.2381295200
2.7615137500 -5.0557384375 -3.2557442400
2.8095931250 -5.5679920625 -2.3580929280
3.8889737500 -5.2190443750 -3.2425072960
3.9569809375 -5.7795923750 -2.4412836240
5.0705734375 -5.3494150000 -3.2519234000
5.0306775000 -5.9363246875 -2.4710473200
6.1555440625 -5.4559327188 -3.2151915280
6.1367315625 -6.0313587188 -2.4264924400
2.7506965625 -3.9270287500 -3.2534776400
2.8436437500 -4.4925459375 -2.4430321440
3.9403184375 -4.0518900000 -3.2657820400
3.9041850000 -4.6341906250 -2.4904105600
5.0736775000 -4.2667018750 -3.2397744240
4.9911578125 -4.8061100000 -2.4194336000
6.1843137500 -4.3331368750 -3.2052832480
6.1790059375 -4.8988421875 -2.4116364960
2.8079134375 -2.7869106250 -3.2662871680
2.7807025000 -3.3672896875 -2.4690656640
3.9303209375 -2.9463196875 -3.2075368960
3.8706181250 -3.5248443750 -2.4261038800
5.0230853125 -3.0849140625 -3.2087673360
5.0368050000 -3.6750218750 -2.4630300320
6.1557725000 -3.1785196875 -3.2574020960
6.1615775000 -3.7480143750 -2.4605821040
6.7010393750 -2.6339784375 -4.8505240000
2.7467056250 -2.2515740625 -5.7280789888
3.2828753125 -2.2995862500 -4.8632558160
3.8281556250 -2.3809503125 -5.6705319576
4.4215825000 -2.5066581250 -4.9083935360
5.0301668750 -2.5224471875 -5.6298277072
5.5906853125 -2.6851484375 -4.8263555680
6.1373900000 -2.6598590625 -5.6658226104
3.8981515625 -2.3617884375 -2.4528627120
5.0339562500 -2.5081765625 -2.4255858000
6.1227296875 -2.6499153125 -2.3960034320
2.7270062500 -2.2545437500 -2.4319581840
2.7559909375 -4.0131228125 -6.4503332806
6.2251771875 -5.4407590938 -6.4496345202
5.0844678125 -4.2352178125 -6.4682523726
5.0298309375 -3.0974378125 -6.4226983754
6.0972521875 -3.2330759375 -6.4692555568
3.8146509375 -5.2290553125 -6.4485377449
-3.9159025000 -2.2382709375 -2.3792305920
-6.1831527500 -2.0912109375 -6.4144549454
-5.6091995000 -1.9766562500 -4.0134491920
-4.5173650000 -1.7780768750 -4.1074936640
-3.9777553125 -2.2203587500 -5.6733852832
-3.3617937500 -1.6843368750 -4.0651406240
-2.8434421875 -2.0682193750 -5.6694621224
-6.7034825813 -1.5312971875 -4.8572072320
-6.1894415000 -1.4747925000 -5.7171397296
-5.6284151250 -1.4320075000 -4.9012440320
-5.6238356250 -0.9148384375 -4.0097837760
-5.0370065625 -1.3591090625 -5.6725097280
-4.5043709375 -1.1822715625 -4.8505499040
-4.4794981250 -0.6403371875 -4.0210649680
-3.9158890625 -1.1737118750 -5.6455436640
-3.3752312500 -1.0838015625 -4.7923306640
-3.3804315625 -0.4687940625 -4.0963031360
-2.8672534375 -0.9359487500 -5.6764523168
-6.7109075794 -0.4223809375 -4.8502390560
-6.1564376563 -0.3363003125 -5.6661412296
-5.5998402813 -0.3528687500 -4.8199572800
-5.6277996875 0.2450731250 -4.0942308160
-5.0817400000 -0.1864856250 -5.6972234392
-4.5173918750 -0.1030118750 -4.8917372640
-3.9191812500 0.5036240625 -6.4167966670
-4.5026643750 0.4269900000 -4.0044605040
-3.9270556250 -0.0793484375 -5.6725136136
-3.3916115625 0.1054709375 -4.8620253760
-3.3601409375 0.6434143750 -4.0117654320
-2.7885768750 0.1156431250 -5.6273810744
-6.6866108594 1.2297462500 -4.0199640480
-6.1740380938 0.7175490625 -5.6263112392
-5.6054611875 0.8420475000 -4.8461850800
-5.5869470000 1.3953096875 -4.0478885600
-5.0443434375 0.9206165625 -5.6397308064
-4.4586565625 0.9685615625 -4.8330258480
-4.5225518750 1.5640309375 -4.0896846640
-3.9484346875 1.1154603125 -5.6996040168
-3.3792625000 1.1837900000 -4.8811295760
-2.7977546875 1.7814631250 -6.4267185466
-2.7844784375 1.2117534375 -5.6516000192
-6.1824486250 -2.1171453125 -3.2046486000
-5.0235959375 -1.9574943750 -3.2290372160
-3.9537693750 -1.7057562500 -3.2853007040
-2.8291446875 -1.4912400000 -3.2532056480
-2.8538293750 -2.0529812500 -2.4697780240
-6.2006295625 -0.9141531250 -3.2520917760
-6.1517170625 -1.5078756250 -2.4932340960
-5.0377859375 -0.7899100000 -3.2458100560
-5.0831106250 -1.3685421875 -2.4697003120
-3.8878450000 -0.6500793750 -3.2247371520
-3.9601118750 -1.1949431250 -2.3832845680
-2.8198996875 -0.4273796875 -3.2589045280
-2.8027131250 -0.9641675000 -2.3797875280
-6.1495791563 0.1853300000 -3.2130155920
-6.1510075625 -0.3899293750 -2.4074270960
-5.1056453125 0.3542393750 -3.2427922400
-5.0208009375 -0.2231565625 -2.4535103120
-3.9380609375 0.5175318750 -3.2359276800
-3.9540784375 -0.0635325000 -2.4735082000
-6.1339553750 1.3187025000 -3.2141683200
-6.2272815000 0.7519356250 -2.4184751520
-5.0307715625 1.4463050000 -3.1883679360
-5.0187718750 0.8879634375 -2.3827794400
-2.8309318750 1.8110256250 -3.2507318160
-3.8698387500 1.0777143750 -2.4399495680
-2.7755156250 0.6450403125 -3.2191289360
-2.8110443750 1.2340462500 -2.4681201680
-2.2585078125 -2.0180303125 -4.9091318000
-2.2800481250 -0.9532696875 -4.8553810000
-2.2424231250 -0.3811681250 -4.0593510800
-2.2724290625 0.8149171875 -4.0908244400
-2.2499750000 1.3938181250 -4.8416777840
-6.1994322813 1.8780518750 -5.6716264016
-5.6265204375 1.9630575000 -4.8935246400
-5.0248859375 2.0139318750 -5.6372776976
-4.4645153125 2.1418703125 -4.8643049280
-3.8779146875 2.2244303125 -5.6372336608
-3.4058418750 1.7124750000 -4.0115970560
-6.1725868438 1.9073187500 -2.4477337200
-5.0960106250 2.0593237500 -2.4587040640
-3.9894862500 1.6516568750 -3.2299827120
-3.9012556250 2.1877459375 -2.3846574800
-2.8261750000 0.0997600000 -2.3856547840
-6.7129593378 -2.0768059375 -4.0326699600
-2.7721025000 -1.5046237500 -6.4594090061
-5.0490331250 -0.7884856250 -6.4373244214
-6.1412909063 1.2896640625 -6.4359537112
-2.2268087500 -1.5011568750 -4.0118431440
1.6899268750 -1.5124981250 -3.2676212240
-1.7019265625 0.8574737500 -3.2606141920
-1.6877365625 -1.3716059375 -6.4202952613
-1.6711546875 -1.9574540625 -5.6669377776
-1.1707287500 -1.2832409375 -4.0843743440
-0.5618353125 -1.8066046875 -5.6664702104
-0.6183937500 -1.2734315625 -3.2208904080
-1.1149496875 -1.8689009375 -4.8603286640
0.0101990625 -1.8406821875 -4.8447733120
-0.0782196875 -1.2761190625 -4.0632237280
0.5630984375 -1.8763184375 -5.6339024064
1.1499946875 -1.9118337500 -4.8533216320
1.0971853125 -1.3782709375 -3.9992926560
1.7046409375 -2.0737959375 -5.6876998336
-1.6632131250 -0.2372659375 -6.4399367102
-1.7365550000 -0.7970990625 -5.6491080544
-1.1277018750 -0.7347221875 -4.9169548080
-0.6013550000 -0.1423031250 -6.4353333104
-0.5670087500 -0.1618546875 -3.2202039520
-0.5175184375 -0.7035203125 -5.6176372848
0.0464937500 -0.6942215625 -4.8157996880
0.5682987500 -0.7498796875 -5.6809622032
-0.0112875000 -0.1238803125 -4.0399360320
1.1150034375 -0.8175240625 -4.8075104080
1.1562968750 -0.2272953125 -4.0266602320
1.6193396875 -0.9526112500 -5.7191369280
-2.2352475000 0.2002590625 -4.8003609040
-1.7057696875 0.3410034375 -5.6622724672
-1.1174490625 -0.2174993750 -4.0319187440
-1.1296637500 0.3552203125 -4.8387765360
-0.5795996875 0.4434912500 -5.6674934184
-0.0326128125 0.4390300000 -4.8414187440
0.0414950000 0.9858959375 -4.0158453120
0.5219259375 0.3383159375 -5.6691214848
1.0848362500 0.3050850000 -4.8635796160
1.6180631250 0.1772540625 -5.6903679456
1.1373231250 0.8542084375 -4.0364389920
2.2064106250 0.0744975000 -4.9125122720
-2.2387278125 1.9342878125 -3.9947465040
-1.6563062500 1.3886178125 -5.6438314096
-1.1289784375 0.9282221875 -4.0470596320
-1.1256593750 1.5094209375 -4.7911261280
-0.6044993750 1.5527300000 -5.6698247784
-0.0350584375 1.5350193750 -4.8541764640
0.5862512500 2.0503206250 -6.4328071523
0.0197396875 2.0800578125 -4.0197050080
0.5083003125 1.4717556250 -5.6877218520
1.0776068750 1.4011146875 -4.9071242400
1.6749306250 1.3529143750 -5.6750677480
1.7006365625 0.7678725000 -6.4341308467
-1.6796875000 -1.3645378125 -3.1756749760
-0.5488681250 -0.7068259375 -2.4081394560
0.4892325000 -1.3260259375 -3.2782677680
0.5780946875 -1.8730128125 -2.4390170240
1.6317962500 -0.9625415625 -2.4569166880
-1.7079465625 -0.7632768750 -2.4495729040
-0.5955231250 0.4252565625 -2.4409598240
-0.5660950000 0.9637375000 -3.2674398960
0.5624534375 -0.2275103125 -3.2564436480
1.6984462500 -0.3723128125 -3.2030036960
-1.6995346875 1.3879593750 -2.3948636560
-1.7041303125 -0.2104850000 -3.2485947360
-0.5485590625 2.0768462500 -3.2316276160
-1.6666396875 0.3184284375 -2.3821447920
-0.5827709375 1.5147825000 -2.4268939520
0.5883609375 0.9167868750 -3.1980171760
1.7014428125 0.8058468750 -3.2072908080
1.6615871875 0.2208050000 -2.4579917040
-1.6545862500 1.9378487500 -3.2237398480
0.5978746875 2.0976878125 -3.2284673280
1.1377531250 1.9240887500 -4.0464508880
1.6564137500 1.3766718750 -2.4054324880
2.2182221875 -2.1158687500 -4.8193226320
2.1822231250 -0.9934746875 -4.8761560080
2.2343740625 0.6127096875 -4.0500644960
1.6996287500 1.9238737500 -3.2306303120
1.6774434375 1.9303371875 -6.4548539172
-1.7242059375 -1.9569434375 -2.4375145920
-0.5300421875 -1.8343128125 -2.3913018560
1.6425328125 -2.0752606250 -2.4583284560
0.5554390625 -0.7851396875 -2.4342506880
0.5096306250 0.3419709375 -2.4482777040
0.5175453125 1.5244440625 -2.4692599440
-1.1140225000 2.1060862500 -4.0525642320
-0.6022284375 -1.2203534375 -6.4704006691
2.2074318750 1.1680546875 -4.8690971680
2.2227371875 1.7583775000 -4.1057580960
6.6615465625 -0.9720015625 -4.0278647680
6.7161162500 0.1429078125 -4.0361540480
6.6681712500 0.6937109375 -4.8667010480
2.2733696875 -1.5468846875 -4.0283180880
3.9382759375 -1.7991871875 -6.4189530455
3.3775425000 -1.7569262500 -4.0368534560
4.4432437500 -1.9646700000 -4.0446505600
5.5544846875 -2.0918828125 -4.1042038560
2.8261212500 -0.4711187500 -3.2083528720
2.7197096875 -1.1326468750 -5.6986131888
3.2953587500 -1.2100200000 -4.9179780160
3.9133359375 -0.6787012500 -6.4582935798
3.3441503125 -0.6889675000 -4.0528750800
3.9075040625 -1.2145484375 -5.6411801352
4.4560362500 -1.4101178125 -4.8565725840
4.4477587500 -0.8238396875 -4.0993339040
5.0594203125 -1.4413734375 -5.6290972144
5.6053993750 -1.4844675000 -4.8004645200
5.5610825000 -0.8887562500 -4.0646873040
6.1390293750 -1.5897906250 -5.6386661520
2.2585078125 -0.4657168750 -4.0191092160
2.7891412500 0.6452821875 -6.4615692702
2.7886037500 0.0651450000 -5.6800944192
3.3262246875 -0.1162746875 -4.8519357680
3.3246121875 0.4770178125 -4.1006161520
3.9169909375 -0.1081987500 -5.6283200944
4.4842281250 -0.2228743750 -4.8214079040
4.4304512500 0.3647878125 -4.0832086640
5.0290784375 -0.3585662500 -5.6296347224
5.6314815625 -0.3294337500 -4.8803524560
6.1396743750 0.0910793750 -6.4315138951
5.5657453125 0.1909065625 -3.9963007440
6.1732009375 -0.4832259375 -5.6766465968
2.8132750000 1.1882243750 -5.6249266704
3.3760106250 1.0633900000 -4.8438925760
3.3065521875 1.6500578125 -4.0913425200
3.9388671875 0.9463090625 -5.6308379632
4.5240971875 0.9457715625 -4.8474673280
4.4314993750 1.4930540625 -4.0205857440
5.0457946875 0.7809875000 -5.6964359576
5.5927681250 0.7339831250 -4.8410431360
5.6006425000 1.3072000000 -4.0215960000
6.1323643750 0.7015987500 -5.7100329672
2.8223184375 -1.6663306250 -3.1979653680
3.9231587500 -1.7762896875 -3.1945589920
5.0405675000 -1.9596443750 -3.2605364800
6.1173278125 -2.1110715625 -3.2769596160
2.7963840625 0.0934443750 -2.4066240720
2.7748168750 -1.0667493750 -2.4695578400
3.9207400000 -0.6432665625 -3.2609509440
3.9088746875 -1.1850262500 -2.4228011200
4.9971509375 -0.9021668750 -3.2477399040
5.0155065625 -1.4299246875 -2.3741793120
6.0985421875 -1.0371196875 -3.2154894240
6.1765871875 -1.5868209375 -2.3997983680
2.7580065625 1.7097337500 -3.2351635120
2.7947312500 0.6474725000 -3.2440097280
3.8711959375 0.4128268750 -3.2599277360
3.9236425000 -0.1244715625 -2.3646984480
4.9707328125 0.2110628125 -3.2491905280
5.0551203125 -0.3372812500 -2.4244589760
6.1569146875 0.1358531250 -3.2366788960
6.1454256250 -0.4387075000 -2.4724590880
3.8475593750 1.5001490625 -3.2472865840
3.9477359375 0.9412028125 -2.4174648960
5.0078606250 1.3444890625 -3.2652251040
5.0448406250 0.7786225000 -2.4558416720
6.1646143750 1.2889384375 -3.2524155760
6.1128934375 0.7068662500 -2.4570721120
6.7068981250 1.7823365625 -4.8461203200
3.9493753125 2.0490306250 -5.7002775208
4.4896703125 2.0519465625 -4.8403437280
5.0202768750 1.9150050000 -5.7089372280
5.5686612500 1.8421065625 -4.8360954720
6.1146000000 1.8211709375 -5.6447574776
3.9448200000 2.0662037500 -2.4588465360
5.0188928125 1.8827012500 -2.4341859280
6.1643321875 1.8038500000 -2.3919753600
2.8107084375 1.1654881250 -2.3582094960
2.8293865625 -0.5200984375 -6.4230928933
4.9950278125 0.1878965625 -6.4553267947
-3.9328471875 6.6405303125 -5.6269821528
-3.3142250000 2.2689084375 -4.8193096800
-6.1821919688 6.3550775000 -5.7130158128
-5.6376319063 6.4707878125 -4.8358105280
-5.1033609375 6.5450703125 -5.6886259016
-4.5443878125 6.6727803125 -4.8861031440
-6.1416926875 6.3384687500 -2.4442625840
-5.0442225000 6.5091518750 -2.4682885440
-3.9377518750 6.6471818750 -2.4131907360
-3.8813546875 2.7510056250 -3.1869432160
-5.0248321875 2.5785218750 -6.4181931517
-5.5693411875 2.4696378125 -4.0064939680
-4.4388362500 2.6840600000 -4.0272301200
-2.8016246875 2.3858012500 -5.6946032496
-6.6806322469 2.9385796875 -4.8280911360
-6.1435457188 3.0266490625 -5.6601133688
-5.5670003750 3.0385815625 -4.8181310480
-5.6124325625 3.6355962500 -4.0800613280
-5.0585603125 3.1941475000 -5.6972066016
-4.5030675000 3.2367578125 -4.8707550240
-3.8698387500 3.8990250000 -6.4192866890
-4.4584684375 3.7616534375 -4.0037870000
-3.9195171875 3.3176650000 -5.6562562632
-3.3599796875 3.4358343750 -4.8769460800
-3.3079093750 3.9565240625 -4.0030875920
-2.7661093750 3.4828656250 -5.6351393224
-6.1335401563 4.6479640625 -6.4636317725
-6.6883538375 4.6499796875 -4.0413089440
-6.1289001875 4.1037587500 -5.6232804712
-5.5723095313 4.2211621875 -4.8528553600
-5.5834330938 4.7905896875 -4.0725621200
-4.9984543750 4.3063290625 -5.6402139160
-4.4321578125 4.3236096875 -4.8201256560
-3.8872940625 5.5836171875 -5.6218168952
-4.4985256250 4.9180578125 -4.1085557280
-3.9188990625 4.5077034375 -5.6996558248
-3.3643334375 4.5077034375 -4.8617145280
-2.8020546875 5.1903956250 -6.4426454915
-3.3520784375 5.0389684375 -4.0140708880
-2.7965856250 4.6082696875 -5.6833104008
-6.1808589688 5.2401681250 -5.7254665704
-5.6623125625 5.3649353125 -4.8833832240
-5.5436325625 5.8879765625 -4.0298593760
-5.0539915625 5.3965806250 -5.6309273320
-4.4882728125 5.5146021875 -4.8651338560
-5.0173475000 5.9616812500 -6.4295918183
-4.4402606250 6.0780365625 -4.0971450160
-3.3112015625 5.6023221875 -4.8246977120
-3.3704071875 6.2122906250 -4.1347576240
-2.7960750000 5.7824384375 -5.7006868040
-6.1815563750 2.4688450000 -3.2752888080
-5.0120531250 2.6315193750 -3.2343345840
-3.3733096875 2.8712846875 -4.0877289120
-2.8318725000 2.9232206250 -3.2266540480
-6.1629696250 3.5407409375 -3.2304748880
-6.1282027813 2.9916443750 -2.3901750320
-5.0699553125 3.7629434375 -3.2724652720
-5.0281378125 3.2102456250 -2.4522798720
-3.9004225000 3.9325784375 -3.2398262320
-3.9548040625 3.3586493750 -2.4677316080
-2.7504681250 4.0404681250 -3.1824100160
-2.7902834375 3.4626556250 -2.4033601680
-6.1251470938 4.6546290625 -3.2292444480
-6.1470045313 4.0974565625 -2.4147708800
-5.0261087500 4.8300287500 -3.2287134160
-4.9896528125 4.2892768750 -2.3818468960
-3.9635250000 5.0487643750 -3.2760141200
-3.8974125000 4.5034975000 -2.4396905280
-2.7980234375 5.2229815625 -3.2405774480
-2.8298703125 4.6478431250 -2.4768757200
-6.1376910000 5.8037100000 -3.2832283840
-6.1540807188 5.2354784375 -2.4737154320
-4.9772365625 5.9470746875 -3.2431808000
-5.0616240625 5.3873087500 -2.4142787040
-3.8915403125 6.0915950000 -3.2338942160
-3.8885840625 5.5655303125 -2.3618878640
-2.8396528125 6.3219943750 -3.2626476560
-2.7614600000 5.7857843750 -2.4235911920
-2.2584675000 4.7247459375 -4.8675429280
-2.2475696875 6.3433196875 -4.0417881680
-2.7339668750 2.3468728125 -2.4167913920
-5.0556443750 4.8604243750 -6.4738602130
-2.2536703125 3.0217040625 -4.0241604960
-6.7111756038 3.5299103125 -4.0789733600
-6.1316992188 2.4396453125 -6.4545036951
-2.7796275000 4.0374581250 -6.4664294952
-2.2312968750 2.4713712500 -4.8569481920
-2.2028228125 5.2546671875 -3.9997071200
1.0978571875 2.4908825000 -4.8662995360
-1.6713831250 2.5050456250 -5.6624861752
-1.1248800000 2.6656506250 -4.8498116400
-0.5331462500 4.3386462500 -6.4558966827
-1.0984350000 3.1987565625 -4.0012484080
-0.5576025000 2.6268968750 -5.6586964200
-0.0007793750 2.6283078125 -4.8489309040
0.0276006250 3.2073700000 -4.0645707360
0.5494056250 2.6419737500 -5.6900830016
1.6877365625 2.4785468750 -5.6272204696
1.1696806250 3.6604153125 -4.8588262320
-2.2062090625 3.5766996875 -4.8380123680
-2.2329496875 4.1598871875 -4.0725103120
-1.6663709375 3.6828962500 -5.6783161096
-1.1052881250 3.7394681250 -4.8691619280
-1.1176640625 4.3025531250 -4.0701919040
-0.5728809375 3.1974665625 -6.4632704376
-0.5289806250 3.7640587500 -5.6709282888
0.5491771875 4.3154934375 -6.4613520651
-0.0002553125 4.3344134375 -4.0581465440
0.0118653125 3.7608337500 -4.8651856640
0.6024434375 3.7255334375 -5.6466666024
1.0708343750 4.2060584375 -4.0347422800
1.7384900000 3.5677100000 -5.6376248112
-1.6610765625 5.3332900000 -6.4711470928
-1.6745946875 4.7717503125 -5.6517878232
-1.1204321875 4.8846521875 -4.8371186800
-0.5423375000 5.4404003125 -6.4728666263
-1.1030978125 5.4690759375 -4.0741034080
-0.5644153125 4.8875950000 -5.6443520800
0.0332846875 4.8800162500 -4.8839660640
0.5432646875 5.4130550000 -6.4624439187
-0.0034400000 5.4309940625 -4.0547790240
0.6172515625 4.8556809375 -5.6481418352
1.1695328125 4.7646687500 -4.8468326800
1.1329156250 5.3151896875 -4.0242382080
1.7319325000 4.7007734375 -5.7023096896
-2.2249543750 5.7976631250 -4.8634371440
-1.6789887500 5.8966034375 -5.6933754000
-1.1091715625 6.0236953125 -4.8867507440
-0.5666996875 6.5458362500 -6.4659684688
-1.1130415625 6.5343203125 -3.9800459840
-0.5254062500 5.9925337500 -5.6509446480
0.0378534375 6.0048425000 -4.8273010640
0.0004434375 6.5905965625 -4.0678216880
0.5848134375 5.9868362500 -5.6617738152
1.1423487500 5.8789734375 -4.8018244800
1.1587559375 6.4839431250 -4.0719663280
1.6480959375 5.7966284375 -5.6917861896
-1.6819718750 3.1174865625 -3.2461856640
-1.6756562500 2.5453715625 -2.4754639520
-0.5039734375 3.2286953125 -3.2260323520
-0.5713759375 2.6611356250 -2.4489512080
1.1303759375 3.0724843750 -4.0917958400
0.5686346875 2.6291140625 -2.3882581360
1.6496950000 3.0065465625 -3.2183906720
-1.6801578125 4.2270612500 -3.2311483920
-1.6366337500 3.6634118750 -2.4105614800
-0.5768181250 4.3586009375 -3.2459395760
-0.5559496875 3.8001653125 -2.4294714000
0.5247343750 4.2919912500 -3.2036642480
0.6049159375 3.7291346875 -2.4027255200
1.6607943750 4.1016893750 -3.2774517920
1.7334106250 3.5640818750 -2.4186435280
-1.6351153125 5.3258187500 -3.2124975120
-1.6817434375 4.7728387500 -2.3980239440
-0.5511928125 5.4358987500 -3.2277808720
-0.5163225000 4.8882937500 -2.3822354560
0.5597121875 5.4411259375 -3.2478046640
0.5948915625 4.8731765625 -2.4507126800
1.7077450000 5.1931771875 -3.2589045280
1.6793650000 4.6537556250 -2.4231119680
-1.7086318750 6.5096625000 -3.2291019760
-1.6743125000 5.9265690625 -2.4830667760
-0.5244387500 6.5674706250 -3.2198542480
-0.5623190625 6.0026118750 -2.4343284000
0.5764821875 6.4959428125 -3.2639299040
0.5666459375 5.9644359375 -2.3728452560
1.6733853125 6.3320859375 -3.1931731280
1.6928965625 5.7503362500 -2.4350537120
0.5800296875 3.1839484375 -3.2312131520
1.7158343750 2.4540100000 -2.3703455200
2.1938868750 2.9130484375 -4.0807218800
2.2289050000 4.6384637500 -4.7986900960
-1.6632400000 3.0849140625 -6.4324852951
-1.6852237500 6.4818737500 -6.4435902104
1.7610650000 6.3545803125 -6.4571824278
2.8482528125 2.2568684375 -5.6201771720
3.4298412500 2.2413481250 -4.8406416240
2.8634640625 2.2494778125 -2.4140585200
6.7069921875 5.7623225000 -4.0168296640
2.2459034375 4.0616859375 -4.0305587840
2.3010106250 5.2266903125 -4.0446505600
6.7115609375 6.3088390625 -4.8326761440
3.3279446875 6.6056062500 -4.8329222320
3.9232931250 6.5714615625 -5.6032994208
4.5061984375 6.5391712500 -4.8362379440
5.0421396875 6.2807009375 -5.7131777128
5.6115671875 6.3400946875 -4.8865435120
6.2124518750 6.2782956250 -5.6845240032
3.9401975000 6.5810156250 -2.3588311920
5.0885259375 6.3759459375 -2.4231896800
6.1805109375 6.2733371875 -2.4671099120
6.7104993750 2.3577975000 -4.0718627120
6.7031490625 4.0935462500 -4.8728662000
6.7094781250 5.2064131250 -4.8581527280
2.2678603125 2.3420218750 -4.8628284000
3.3319356250 2.7811593750 -4.0128404480
5.0961450000 2.5129737500 -6.4746284221
4.5342156250 2.6080440625 -4.0116100080
5.6323818750 2.4436228125 -4.0625243200
2.3112365625 3.4964912500 -4.8385174960
2.8513165625 3.3638765625 -5.6899988136
3.3787250000 3.3476575000 -4.8045573520
3.8967406250 3.2062815625 -5.7120159184
3.4289140625 3.9255237500 -4.0215700960